# vtk DataFile Version 3.0
Generated by Jean Bénézech
ASCII
DATASET UNSTRUCTURED_GRID
POINTS 3999 double
54.89 130.867 338
54.99 130.954 336
55.09 131.041 334
55.19 131.128 332
55.29 131.216 330
55.39 131.303 328
55.49 131.39 326
55.59 131.477 324
55.69 131.564 322
54.79 129.606 340
55.79 130.459 320
54.79 128.431 340
55.79 129.266 320
54.79 127.257 340
55.79 128.073 320
54.79 126.083 340
55.79 126.881 320
54.79 124.908 340
55.69 125.61 322
54.79 123.734 340
55.69 124.419 322
54.79 122.56 340
55.69 123.228 322
54.79 121.385 340
55.59 121.965 324
54.79 120.211 340
55.59 120.776 324
54.79 119.037 340
55.59 119.587 324
54.79 117.862 340
55.49 118.331 326
54.79 116.688 340
55.49 117.144 326
54.79 115.514 340
55.39 115.894 328
54.89 114.401 338
54.99 114.462 336
55.09 114.524 334
55.19 114.585 332
55.29 114.647 330
54.64 130.867 338
54.74 130.954 336
54.84 131.041 334
54.94 131.128 332
55.04 131.216 330
55.14 131.303 328
55.24 131.39 326
55.34 131.477 324
55.44 131.564 322
54.54 129.606 340
55.54 130.459 320
54.54 128.431 340
55.54 129.266 320
54.54 127.257 340
55.54 128.073 320
54.54 126.083 340
55.54 126.881 320
54.54 124.908 340
55.44 125.61 322
54.54 123.734 340
55.44 124.419 322
54.54 122.56 340
55.44 123.228 322
54.54 121.385 340
55.34 121.965 324
54.54 120.211 340
55.34 120.776 324
54.54 119.037 340
55.34 119.587 324
54.54 117.862 340
55.24 118.331 326
54.54 116.688 340
55.24 117.144 326
54.54 115.514 340
55.14 115.894 328
54.64 114.401 338
54.74 114.462 336
54.84 114.524 334
54.94 114.585 332
55.04 114.647 330
54.39 130.867 338
54.49 130.954 336
54.59 131.041 334
54.69 131.128 332
54.79 131.216 330
54.89 131.303 328
54.99 131.39 326
55.09 131.477 324
55.19 131.564 322
54.29 129.606 340
55.29 130.459 320
54.29 128.431 340
55.29 129.266 320
54.29 127.257 340
55.29 128.073 320
54.29 126.083 340
55.29 126.881 320
54.29 124.908 340
55.19 125.61 322
54.29 123.734 340
55.19 124.419 322
54.29 122.56 340
55.19 123.228 322
54.29 121.385 340
55.09 121.965 324
54.29 120.211 340
55.09 120.776 324
54.29 119.037 340
55.09 119.587 324
54.29 117.862 340
54.99 118.331 326
54.29 116.688 340
54.99 117.144 326
54.29 115.514 340
54.89 115.894 328
54.39 114.401 338
54.49 114.462 336
54.59 114.524 334
54.69 114.585 332
54.79 114.647 330
54.38 130.867 338
54.48 130.954 336
54.58 131.041 334
54.68 131.128 332
54.78 131.216 330
54.88 131.303 328
54.98 131.39 326
55.08 131.477 324
55.18 131.564 322
54.28 129.606 340
55.28 130.459 320
54.28 128.431 340
55.28 129.266 320
54.28 127.257 340
55.28 128.073 320
54.28 126.083 340
55.28 126.881 320
54.28 124.908 340
55.18 125.61 322
54.28 123.734 340
55.18 124.419 322
54.28 122.56 340
55.18 123.228 322
54.28 121.385 340
55.08 121.965 324
54.28 120.211 340
55.08 120.776 324
54.28 119.037 340
55.08 119.587 324
54.28 117.862 340
54.98 118.331 326
54.28 116.688 340
54.98 117.144 326
54.28 115.514 340
54.88 115.894 328
54.38 114.401 338
54.48 114.462 336
54.58 114.524 334
54.68 114.585 332
54.78 114.647 330
54.13 130.867 338
54.23 130.954 336
54.33 131.041 334
54.43 131.128 332
54.53 131.216 330
54.63 131.303 328
54.73 131.39 326
54.83 131.477 324
54.93 131.564 322
54.03 129.606 340
55.03 130.459 320
54.03 128.431 340
55.03 129.266 320
54.03 127.257 340
55.03 128.073 320
54.03 126.083 340
55.03 126.881 320
54.03 124.908 340
54.93 125.61 322
54.03 123.734 340
54.93 124.419 322
54.03 122.56 340
54.93 123.228 322
54.03 121.385 340
54.83 121.965 324
54.03 120.211 340
54.83 120.776 324
54.03 119.037 340
54.83 119.587 324
54.03 117.862 340
54.73 118.331 326
54.03 116.688 340
54.73 117.144 326
54.03 115.514 340
54.63 115.894 328
54.13 114.401 338
54.23 114.462 336
54.33 114.524 334
54.43 114.585 332
54.53 114.647 330
54.12 130.867 338
54.22 130.954 336
54.32 131.041 334
54.42 131.128 332
54.52 131.216 330
54.62 131.303 328
54.72 131.39 326
54.82 131.477 324
54.92 131.564 322
54.02 129.606 340
55.02 130.459 320
54.02 128.431 340
55.02 129.266 320
54.02 127.257 340
55.02 128.073 320
54.02 126.083 340
55.02 126.881 320
54.02 124.908 340
54.92 125.61 322
54.02 123.734 340
54.92 124.419 322
54.02 122.56 340
54.92 123.228 322
54.02 121.385 340
54.82 121.965 324
54.02 120.211 340
54.82 120.776 324
54.02 119.037 340
54.82 119.587 324
54.02 117.862 340
54.72 118.331 326
54.02 116.688 340
54.72 117.144 326
54.02 115.514 340
54.62 115.894 328
54.12 114.401 338
54.22 114.462 336
54.32 114.524 334
54.42 114.585 332
54.52 114.647 330
53.87 130.867 338
53.97 130.954 336
54.07 131.041 334
54.17 131.128 332
54.27 131.216 330
54.37 131.303 328
54.47 131.39 326
54.57 131.477 324
54.67 131.564 322
53.77 129.606 340
54.77 130.459 320
53.77 128.431 340
54.77 129.266 320
53.77 127.257 340
54.77 128.073 320
53.77 126.083 340
54.77 126.881 320
53.77 124.908 340
54.67 125.61 322
53.77 123.734 340
54.67 124.419 322
53.77 122.56 340
54.67 123.228 322
53.77 121.385 340
54.57 121.965 324
53.77 120.211 340
54.57 120.776 324
53.77 119.037 340
54.57 119.587 324
53.77 117.862 340
54.47 118.331 326
53.77 116.688 340
54.47 117.144 326
53.77 115.514 340
54.37 115.894 328
53.87 114.401 338
53.97 114.462 336
54.07 114.524 334
54.17 114.585 332
54.27 114.647 330
53.62 130.867 338
53.72 130.954 336
53.82 131.041 334
53.92 131.128 332
54.02 131.216 330
54.12 131.303 328
54.22 131.39 326
54.32 131.477 324
54.42 131.564 322
53.52 129.606 340
54.52 130.459 320
53.52 128.431 340
54.52 129.266 320
53.52 127.257 340
54.52 128.073 320
53.52 126.083 340
54.52 126.881 320
53.52 124.908 340
54.42 125.61 322
53.52 123.734 340
54.42 124.419 322
53.52 122.56 340
54.42 123.228 322
53.52 121.385 340
54.32 121.965 324
53.52 120.211 340
54.32 120.776 324
53.52 119.037 340
54.32 119.587 324
53.52 117.862 340
54.22 118.331 326
53.52 116.688 340
54.22 117.144 326
53.52 115.514 340
54.12 115.894 328
53.62 114.401 338
53.72 114.462 336
53.82 114.524 334
53.92 114.585 332
54.02 114.647 330
53.37 130.867 338
53.47 130.954 336
53.57 131.041 334
53.67 131.128 332
53.77 131.216 330
53.87 131.303 328
53.97 131.39 326
54.07 131.477 324
54.17 131.564 322
53.27 129.606 340
54.27 130.459 320
53.27 128.431 340
54.27 129.266 320
53.27 127.257 340
54.27 128.073 320
53.27 126.083 340
54.27 126.881 320
53.27 124.908 340
54.17 125.61 322
53.27 123.734 340
54.17 124.419 322
53.27 122.56 340
54.17 123.228 322
53.27 121.385 340
54.07 121.965 324
53.27 120.211 340
54.07 120.776 324
53.27 119.037 340
54.07 119.587 324
53.27 117.862 340
53.97 118.331 326
53.27 116.688 340
53.97 117.144 326
53.27 115.514 340
53.87 115.894 328
53.37 114.401 338
53.47 114.462 336
53.57 114.524 334
53.67 114.585 332
53.77 114.647 330
53.12 130.867 338
53.22 130.954 336
53.32 131.041 334
53.42 131.128 332
53.52 131.216 330
53.62 131.303 328
53.72 131.39 326
53.82 131.477 324
53.92 131.564 322
53.02 129.606 340
54.02 130.459 320
53.02 128.431 340
54.02 129.266 320
53.02 127.257 340
54.02 128.073 320
53.02 126.083 340
54.02 126.881 320
53.02 124.908 340
53.92 125.61 322
53.02 123.734 340
53.92 124.419 322
53.02 122.56 340
53.92 123.228 322
53.02 121.385 340
53.82 121.965 324
53.02 120.211 340
53.82 120.776 324
53.02 119.037 340
53.82 119.587 324
53.02 117.862 340
53.72 118.331 326
53.02 116.688 340
53.72 117.144 326
53.02 115.514 340
53.62 115.894 328
53.12 114.401 338
53.22 114.462 336
53.32 114.524 334
53.42 114.585 332
53.52 114.647 330
52.87 130.867 338
52.97 130.954 336
53.07 131.041 334
53.17 131.128 332
53.27 131.216 330
53.37 131.303 328
53.47 131.39 326
53.57 131.477 324
53.67 131.564 322
52.77 129.606 340
53.77 130.459 320
52.77 128.431 340
53.77 129.266 320
52.77 127.257 340
53.77 128.073 320
52.77 126.083 340
53.77 126.881 320
52.77 124.908 340
53.67 125.61 322
52.77 123.734 340
53.67 124.419 322
52.77 122.56 340
53.67 123.228 322
52.77 121.385 340
53.57 121.965 324
52.77 120.211 340
53.57 120.776 324
52.77 119.037 340
53.57 119.587 324
52.77 117.862 340
53.47 118.331 326
52.77 116.688 340
53.47 117.144 326
52.77 115.514 340
53.37 115.894 328
52.87 114.401 338
52.97 114.462 336
53.07 114.524 334
53.17 114.585 332
53.27 114.647 330
52.62 130.867 338
52.72 130.954 336
52.82 131.041 334
52.92 131.128 332
53.02 131.216 330
53.12 131.303 328
53.22 131.39 326
53.32 131.477 324
53.42 131.564 322
52.52 129.606 340
53.52 130.459 320
52.52 128.431 340
53.52 129.266 320
52.52 127.257 340
53.52 128.073 320
52.52 126.083 340
53.52 126.881 320
52.52 124.908 340
53.42 125.61 322
52.52 123.734 340
53.42 124.419 322
52.52 122.56 340
53.42 123.228 322
52.52 121.385 340
53.32 121.965 324
52.52 120.211 340
53.32 120.776 324
52.52 119.037 340
53.32 119.587 324
52.52 117.862 340
53.22 118.331 326
52.52 116.688 340
53.22 117.144 326
52.52 115.514 340
53.12 115.894 328
52.62 114.401 338
52.72 114.462 336
52.82 114.524 334
52.92 114.585 332
53.02 114.647 330
52.37 130.867 338
52.47 130.954 336
52.57 131.041 334
52.67 131.128 332
52.77 131.216 330
52.87 131.303 328
52.97 131.39 326
53.07 131.477 324
53.17 131.564 322
52.27 129.606 340
53.27 130.459 320
52.27 128.431 340
53.27 129.266 320
52.27 127.257 340
53.27 128.073 320
52.27 126.083 340
53.27 126.881 320
52.27 124.908 340
53.17 125.61 322
52.27 123.734 340
53.17 124.419 322
52.27 122.56 340
53.17 123.228 322
52.27 121.385 340
53.07 121.965 324
52.27 120.211 340
53.07 120.776 324
52.27 119.037 340
53.07 119.587 324
52.27 117.862 340
52.97 118.331 326
52.27 116.688 340
52.97 117.144 326
52.27 115.514 340
52.87 115.894 328
52.37 114.401 338
52.47 114.462 336
52.57 114.524 334
52.67 114.585 332
52.77 114.647 330
52.36 130.867 338
52.46 130.954 336
52.56 131.041 334
52.66 131.128 332
52.76 131.216 330
52.86 131.303 328
52.96 131.39 326
53.06 131.477 324
53.16 131.564 322
52.26 129.606 340
53.26 130.459 320
52.26 128.431 340
53.26 129.266 320
52.26 127.257 340
53.26 128.073 320
52.26 126.083 340
53.26 126.881 320
52.26 124.908 340
53.16 125.61 322
52.26 123.734 340
53.16 124.419 322
52.26 122.56 340
53.16 123.228 322
52.26 121.385 340
53.06 121.965 324
52.26 120.211 340
53.06 120.776 324
52.26 119.037 340
53.06 119.587 324
52.26 117.862 340
52.96 118.331 326
52.26 116.688 340
[...]
POINT_DATA 3999
SCALARS DISPLACEMENT double 3
LOOKUP_TABLE default
0 0 0
0 0 0
0 0 0
0 0 0
0 0 0
0 0 0
0 0 0
0 0 0
0 0 0
0 0 0
0 0 0
0 0 0
0 0 0
0 0 0
0 0 0
0 0 0
0 0 0
0 0 0
0 0 0
0 0 0
0 0 0
0 0 0
0 0 0
0 0 0
0 0 0
0 0 0
0 0 0
0 0 0
0 0 0
0 0 0
0 0 0
0 0 0
0 0 0
0 0 0
0 0 0
0 0 0
0 0 0
0 0 0
0 0 0
0 0 0
0 0 0
0 0 0
0 0 0
0 0 0
0 0 0
0 0 0
0 0 0
0 0 0
0 0 0
0 0 0
0 0 0
0 0 0
0 0 0
0 0 0
0 0 0
0 0 0
0 0 0
0 0 0
0 0 0
0 0 0
0 0 0
0 0 0
0 0 0
0 0 0
0 0 0
0 0 0
0 0 0
0 0 0
0 0 0
0 0 0
0 0 0
0 0 0
0 0 0
0 0 0
0 0 0
0 0 0
0 0 0
0 0 0
0 0 0
0 0 0
0 0 0
0 0 0
0 0 0
0 0 0
0 0 0
0 0 0
0 0 0
0 0 0
0 0 0
0 0 0
0 0 0
0 0 0
0 0 0
0 0 0
0 0 0
0 0 0
0 0 0
0 0 0
0 0 0
0 0 0
0 0 0
0 0 0
0 0 0
0 0 0
0 0 0
0 0 0
0 0 0
0 0 0
0 0 0
0 0 0
0 0 0
0 0 0
0 0 0
0 0 0
0 0 0
0 0 0
0 0 0
0 0 0
0 0 0
0 0 0
0 0 0
0 0 0
0 0 0
0 0 0
0 0 0
0 0 0
0 0 0
0 0 0
0 0 0
0 0 0
0 0 0
0 0 0
0 0 0
0 0 0
0 0 0
0 0 0
0 0 0
0 0 0
0 0 0
0 0 0
0 0 0
0 0 0
0 0 0
0 0 0
0 0 0
0 0 0
0 0 0
0 0 0
0 0 0
0 0 0
0 0 0
0 0 0
0 0 0
0 0 0
0 0 0
0 0 0
0 0 0
0 0 0
0 0 0
0 0 0
0 0 0
0 0 0
0 0 0
0 0 0
0 0 0
0 0 0
0 0 0
0 0 0
0 0 0
0 0 0
0 0 0
0 0 0
0 0 0
0 0 0
0 0 0
0 0 0
0 0 0
0 0 0
0 0 0
0 0 0
0 0 0
0 0 0
0 0 0
0 0 0
0 0 0
0 0 0
0 0 0
0 0 0
0 0 0
0 0 0
0 0 0
0 0 0
0 0 0
0 0 0
0 0 0
0 0 0
0 0 0
0 0 0
0 0 0
0 0 0
0 0 0
0 0 0
0 0 0
0 0 0
0 0 0
0 0 0
0 0 0
0 0 0
0 0 0
0 0 0
0 0 0
0 0 0
0 0 0
0 0 0
0 0 0
0 0 0
0 0 0
0 0 0
0 0 0
0 0 0
0 0 0
0 0 0
0 0 0
0 0 0
0 0 0
0 0 0
0 0 0
0 0 0
0 0 0
0 0 0
0 0 0
0 0 0
0 0 0
0 0 0
0 0 0
0 0 0
0 0 0
0 0 0
0 0 0
0 0 0
0 0 0
0 0 0
0 0 0
0 0 0
0 0 0
0 0 0
0 0 0
0 0 0
0 0 0
0 0 0
0 0 0
0 0 0
0 0 0
0 0 0
0 0 0
0 0 0
0 0 0
0 0 0
0 0 0
0 0 0
0 0 0
0 0 0
0 0 0
0 0 0
0 0 0
0 0 0
0 0 0
0 0 0
0 0 0
0 0 0
0 0 0
0 0 0
0 0 0
0 0 0
0 0 0
0 0 0
0 0 0
0 0 0
0 0 0
0 0 0
0 0 0
0 0 0
0 0 0
0 0 0
0 0 0
0 0 0
0 0 0
0 0 0
0 0 0
0 0 0
0 0 0
0 0 0
0 0 0
0 0 0
0 0 0
0 0 0
0 0 0
0 0 0
0 0 0
0 0 0
0 0 0
0 0 0
0 0 0
0 0 0
0 0 0
0 0 0
0 0 0
0 0 0
0 0 0
0 0 0
0 0 0
0 0 0
0 0 0
0 0 0
0 0 0
0 0 0
0 0 0
0 0 0
0 0 0
0 0 0
0 0 0
0 0 0
0 0 0
0 0 0
0 0 0
0 0 0
0 0 0
0 0 0
0 0 0
0 0 0
0 0 0
0 0 0
0 0 0
0 0 0
0 0 0
0 0 0
0 0 0
0 0 0
0 0 0
0 0 0
0 0 0
0 0 0
0 0 0
0 0 0
0 0 0
0 0 0
0 0 0
0 0 0
0 0 0
0 0 0
0 0 0
0 0 0
0 0 0
0 0 0
0 0 0
0 0 0
0 0 0
0 0 0
0 0 0
0 0 0
0 0 0
0 0 0
0 0 0
0 0 0
0 0 0
0 0 0
0 0 0
0 0 0
0 0 0
0 0 0
0 0 0
0 0 0
0 0 0
0 0 0
0 0 0
0 0 0
0 0 0
0 0 0
0 0 0
0 0 0
0 0 0
0 0 0
0 0 0
0 0 0
0 0 0
0 0 0
0 0 0
0 0 0
0 0 0
0 0 0
0 0 0
0 0 0
0 0 0
0 0 0
0 0 0
0 0 0
0 0 0
0 0 0
0 0 0
0 0 0
0 0 0
0 0 0
0 0 0
0 0 0
0 0 0
0 0 0
0 0 0
0 0 0
0 0 0
0 0 0
0 0 0
0 0 0
0 0 0
0 0 0
0 0 0
0 0 0
0 0 0
0 0 0
0 0 0
0 0 0
0 0 0
0 0 0
0 0 0
0 0 0
0 0 0
0 0 0
0 0 0
0 0 0
0 0 0
0 0 0
0 0 0
0 0 0
0 0 0
0 0 0
0 0 0
0 0 0
0 0 0
0 0 0
0 0 0
0 0 0
0 0 0
0 0 0
0 0 0
0 0 0
0 0 0
0 0 0
0 0 0
0 0 0
0 0 0
0 0 0
0 0 0
0 0 0
0 0 0
0 0 0
0 0 0
0 0 0
0 0 0
0 0 0
0 0 0
0 0 0
0 0 0
0 0 0
0 0 0
0 0 0
0 0 0
0 0 0
0 0 0
0 0 0
0 0 0
0 0 0
0 0 0
0 0 0
0 0 0
0 0 0
0 0 0
0 0 0
0 0 0
0 0 0
0 0 0
0 0 0
0 0 0
0 0 0
0 0 0
0 0 0
0 0 0
0 0 0
0 0 0
0 0 0
0 0 0
0 0 0
0 0 0
0 0 0
0 0 0
0 0 0
0 0 0
0 0 0
0 0 0
0 0 0
0 0 0
0 0 0
0 0 0
0 0 0
0 0 0
0 0 0
0 0 0
0 0 0
0 0 0
0 0 0
0 0 0
0 0 0
0 0 0
0 0 0
0 0 0
0 0 0
0 0 0
0 0 0
0 0 0
0 0 0
0 0 0
0 0 0
0 0 0
0 0 0
0 0 0
0 0 0
0 0 0
0 0 0
0 0 0
0 0 0
0 0 0
0 0 0
0 0 0
0 0 0
0 0 0
0 0 0
0 0 0
0 0 0
0 0 0
0 0 0
0 0 0
0 0 0
0 0 0
0 0 0
0 0 0
0 0 0
0 0 0
0 0 0
0 0 0
0 0 0
0 0 0
0 0 0
0 0 0
0 0 0
0 0 0
0 0 0
0 0 0
0 0 0
0 0 0
0 0 0
0 0 0
0 0 0
0 0 0
0 0 0
0 0 0
0 0 0
0 0 0
0 0 0
0 0 0
0 0 0
0 0 0
0 0 0
0 0 0
0 0 0
0 0 0
0 0 0
0 0 0
0 0 0
0 0 0
0 0 0
0 0 0
0 0 0
0 0 0
0 0 0
0 0 0
0 0 0
0 0 0
0 0 0
0 0 0
0 0 0
0 0 0
0 0 0
0 0 0
0 0 0
0 0 0
0 0 0
0 0 0
0 0 0
0 0 0
0 0 0
0 0 0
0 0 0
0 0 0
0 0 0
0 0 0
0 0 0
0 0 0
0 0 0
0 0 0
0 0 0
0 0 0
0 0 0
0 0 0
0 0 0
0 0 0
0 0 0
0 0 0
0 0 0
0 0 0
0 0 0
0 0 0
0 0 0
0 0 0
0 0 0
0 0 0
0 0 0
0 0 0
0 0 0
0 0 0
0 0 0
0 0 0
0 0 0
0 0 0
0 0 0
0 0 0
0 0 0
0 0 0
0 0 0
0 0 0
0 0 0
0 0 0
0 0 0
0 0 0
0 0 0
0 0 0
0 0 0
0 0 0
0 0 0
0 0 0
0 0 0
0 0 0
0 0 0
0 0 0
0 0 0
0 0 0
0 0 0
0 0 0
0 0 0
0 0 0
0 0 0
0 0 0
0 0 0
0 0 0
0 0 0
0 0 0
0 0 0
0 0 0
0 0 0
0 0 0
0 0 0
0 0 0
0 0 0
0 0 0
0 0 0
0 0 0
0 0 0
0 0 0
0 0 0
0 0 0
0 0 0
0 0 0
0 0 0
0 0 0
0 0 0
0 0 0
0 0 0
0 0 0
0 0 0
0 0 0
0 0 0
0 0 0
0 0 0
0 0 0
0 0 0
0 0 0
0 0 0
0 0 0
0 0 0
0 0 0
0 0 0
0 0 0
0 0 0
0 0 0
0 0 0
0 0 0
0 0 0
0 0 0
0 0 0
0 0 0
0 0 0
0 0 0
0 0 0
0 0 0
0 0 0
0 0 0
0 0 0
0 0 0
0 0 0
0 0 0
0 0 0
0 0 0
0 0 0
0 0 0
0 0 0
0 0 0
0 0 0
0 0 0
0 0 0
0 0 0
0 0 0
0 0 0
0 0 0
0 0 0
0 0 0
0 0 0
0 0 0
0 0 0
0 0 0
0 0 0
0 0 0
0 0 0
0 0 0
0 0 0
0 0 0
0 0 0
0 0 0
0 0 0
0 0 0
0 0 0
0 0 0
0 0 0
0 0 0
0 0 0
0 0 0
0 0 0
0 0 0
0 0 0
0 0 0
0 0 0
0 0 0
0 0 0
0 0 0
0 0 0
0 0 0
0 0 0
0 0 0
0 0 0
0 0 0
0 0 0
0 0 0
0 0 0
0 0 0
0 0 0
0 0 0
0 0 0
0 0 0
0 0 0
0 0 0
0 0 0
0 0 0
0 0 0
0 0 0
0 0 0
0 0 0
0 0 0
0 0 0
0 0 0
0 0 0
0 0 0
0 0 0
0 0 0
0 0 0
0 0 0
0 0 0
0 0 0
0 0 0
0 0 0
0 0 0
0 0 0
0 0 0
0 0 0
0 0 0
0 0 0
0 0 0
0 0 0
0 0 0
0 0 0
0 0 0
0 0 0
0 0 0
0 0 0
0 0 0
0 0 0
0 0 0
0 0 0
0 0 0
0 0 0
0 0 0
0 0 0
0 0 0
0 0 0
0 0 0
0 0 0
0 0 0
0 0 0
0 0 0
0 0 0
0 0 0
0 0 0
0 0 0
0 0 0
0 0 0
0 0 0
0 0 0
0 0 0
0 0 0
0 0 0
0 0 0
0 0 0
0 0 0
0 0 0
0 0 0
0 0 0
0 0 0
0 0 0
0 0 0
0 0 0
0 0 0
0 0 0
0 0 0
0 0 0
0 0 0
0 0 0
0 0 0
0 0 0
0 0 0
0 0 0
0 0 0
0 0 0
0 0 0
0 0 0
0 0 0
0 0 0
0 0 0
0 0 0
0 0 0
0 0 0
0 0 0
0 0 0
0 0 0
0 0 0
0 0 0
0 0 0
0 0 0
0 0 0
0 0 0
0 0 0
0 0 0
0 0 0
0 0 0
0 0 0
0 0 0
0 0 0
0 0 0
0 0 0
0 0 0
0 0 0
0 0 0
0 0 0
0 0 0
0 0 0
0 0 0
0 0 0
0 0 0
0 0 0
0 0 0
0 0 0
0 0 0
0 0 0
0 0 0
0 0 0
0 0 0
0 0 0
0 0 0
0 0 0
0 0 0
0 0 0
0 0 0
0 0 0
0 0 0
0 0 0
0 0 0
0 0 0
0 0 0
0 0 0
0 0 0
0 0 0
0 0 0
0 0 0
0 0 0
0 0 0
0 0 0
0 0 0
0 0 0
0 0 0
0 0 0
0 0 0
0 0 0
0 0 0
0 0 0
0 0 0
0 0 0
0 0 0
0 0 0
0 0 0
0 0 0
0 0 0
0 0 0
0 0 0
0 0 0
0 0 0
0 0 0
0 0 0
0 0 0
0 0 0
0 0 0
0 0 0
0 0 0
0 0 0
0 0 0
0 0 0
0 0 0
0 0 0
0 0 0
0 0 0
0 0 0
0 0 0
0 0 0
0 0 0
0 0 0
0 0 0
0 0 0
0 0 0
0 0 0
0 0 0
0 0 0
0 0 0
0 0 0
0 0 0
0 0 0
0 0 0
0 0 0
0 0 0
0 0 0
0 0 0
0 0 0
0 0 0
0 0 0
0 0 0
0 0 0
0 0 0
0 0 0
0 0 0
0 0 0
0 0 0
0 0 0
0 0 0
0 0 0
0 0 0
0 0 0
0 0 0
0 0 0
0 0 0
0 0 0
0 0 0
0 0 0
0 0 0
0 0 0
0 0 0
0 0 0
0 0 0
0 0 0
0 0 0
0 0 0
0 0 0
0 0 0
0 0 0
0 0 0
0 0 0
0 0 0
0 0 0
0 0 0
0 0 0
0 0 0
0 0 0
0 0 0
0 0 0
0 0 0
0 0 0
0 0 0
0 0 0
0 0 0
0 0 0
0 0 0
0 0 0
0 0 0
0 0 0
0 0 0
0 0 0
0 0 0
0 0 0
0 0 0
0 0 0
0 0 0
0 0 0
0 0 0
0 0 0
0 0 0
0 0 0
0 0 0
0 0 0
0 0 0
0 0 0
0 0 0
0 0 0
0 0 0
0 0 0
0 0 0
0 0 0
0 0 0
0 0 0
0 0 0
0 0 0
0 0 0
0 0 0
0 0 0
0 0 0
0 0 0
0 0 0
0 0 0
0 0 0
0 0 0
0 0 0
0 0 0
0 0 0
0 0 0
0 0 0
0 0 0
0 0 0
0 0 0
0 0 0
0 0 0
0 0 0
0 0 0
0 0 0
0 0 0
0 0 0
0 0 0
0 0 0
0 0 0
0 0 0
0 0 0
0 0 0
0 0 0
0 0 0
0 0 0
0 0 0
0 0 0
0 0 0
0 0 0
0 0 0
0 0 0
0 0 0
0 0 0
0 0 0
0 0 0
0 0 0
0 0 0
0 0 0
0 0 0
0 0 0
0 0 0
0 0 0
0 0 0
0 0 0
0 0 0
0 0 0
0 0 0
0 0 0
0 0 0
0 0 0
0 0 0
0 0 0
0 0 0
0 0 0
0 0 0
0 0 0
0 0 0
0 0 0
0 0 0
0 0 0
0 0 0
0 0 0
0 0 0
0 0 0
0 0 0
0 0 0
0 0 0
0 0 0
0 0 0
0 0 0
0 0 0
0 0 0
0 0 0
0 0 0
0 0 0
0 0 0
0 0 0
0 0 0
0 0 0
0 0 0
0 0 0
0 0 0
0 0 0
0 0 0
0 0 0
0 0 0
0 0 0
0 0 0
0 0 0
0 0 0
0 0 0
0 0 0
0 0 0
0 0 0
0 0 0
0 0 0
0 0 0
0 0 0
0 0 0
0 0 0
0 0 0
0 0 0
0 0 0
-0.0175698 0.00847017 -0.137224
-0.0193859 0.00860242 -0.137942
-0.0211659 0.00873686 -0.138645
-0.0229013 0.0088736 -0.139329
-0.0245806 0.0090129 -0.139993
-0.0154276 0.00863573 -0.137027
-0.0171845 0.00876865 -0.137751
-0.0189085 0.00890363 -0.138459
-0.0205904 0.00904094 -0.139151
-0.0222195 0.00918088 -0.139821
-0.0115374 0.00866246 -0.136085
-0.0132581 0.00879412 -0.136826
-0.0149552 0.00892737 -0.137555
-0.0166219 0.00906267 -0.13827
-0.0182494 0.00920028 -0.138968
-0.0198276 0.00934058 -0.139645
-0.0213442 0.00948409 -0.140299
-0.00940674 0.00881329 -0.135875
-0.0110645 0.00894492 -0.13662
-0.0127011 0.0090783 -0.137355
-0.0143095 0.00921362 -0.138076
-0.0158818 0.00935125 -0.138781
-0.0174079 0.00949165 -0.139466
-0.0188763 0.0096356 -0.140127
-0.00725642 0.00895665 -0.13566
-0.00885059 0.00908798 -0.13641
-0.0104256 0.0092211 -0.13715
-0.011975 0.00935614 -0.137878
-0.0134911 0.00949346 -0.13859
-0.0149645 0.00963359 -0.139283
-0.016384 0.0097775 -0.139953
-0.00354779 0.00896296 -0.13468
-0.00508996 0.00909219 -0.135441
-0.00661983 0.00922291 -0.136196
-0.0081325 0.00935542 -0.136942
-0.00962204 0.00948984 -0.137676
-0.0110812 0.00962653 -0.138395
-0.0125011 0.00976602 -0.139096
-0.0138707 0.00990917 -0.139775
-0.00143542 0.00909134 -0.134453
-0.0029111 0.00921948 -0.135218
-0.00437603 0.00934934 -0.135978
-0.00582567 0.00948091 -0.136729
-0.00725459 0.00961436 -0.13747
-0.00865606 0.00975004 -0.138197
-0.0100217 0.00988851 -0.138906
-0.011341 0.0100304 -0.139595
0.000685093 0.00921161 -0.134221
-0.000723736 0.00933839 -0.134991
-0.00212318 0.00946694 -0.135756
-0.00350918 0.00959718 -0.136513
-0.0048768 0.00972927 -0.13726
-0.00621985 0.00986356 -0.137995
-0.00753058 0.0100006 -0.138713
-0.00879906 0.0101411 -0.139411
0.00415663 0.00920013 -0.13321
0.00280982 0.00932343 -0.133987
0.00146811 0.00944848 -0.13476
0.000134545 0.00957531 -0.13553
-0.00118731 0.00970384 -0.136293
-0.00249302 0.00983417 -0.137047
-0.00377697 0.00996665 -0.137789
-0.00503208 0.0101018 -0.138516
-0.00624908 0.0102405 -0.139224
0.00621345 0.00930544 -0.132968
0.00493462 0.00942642 -0.133748
0.00366019 0.00954938 -0.134526
0.00239276 0.0096741 -0.1353
0.00113545 0.00980049 -0.136069
-0.000107813 0.00992863 -0.13683
-0.00133205 0.0100588 -0.13758
-0.00253086 0.0101917 -0.138317
-0.00369575 0.0103281 -0.139034
0.0106927 0.00917182 -0.131158
0.00947931 0.00928588 -0.131941
0.00826637 0.00940211 -0.132724
0.00705532 0.00952037 -0.133506
0.00584808 0.00964074 -0.134288
0.00464687 0.00976292 -0.135067
0.00345439 0.00988672 -0.135842
0.002274 0.0100122 -0.13661
0.00111005 0.0101397 -0.137368
-3.18211e-05 0.0102698 -0.138114
-0.00114391 0.0104033 -0.138842
0.0126024 0.00926646 -0.130907
0.0114566 0.00937703 -0.131691
0.0103113 0.00948988 -0.132476
0.00916768 0.00960497 -0.133262
0.00802734 0.00972228 -0.134047
0.00689218 0.00984145 -0.134831
0.00576454 0.00996219 -0.135611
0.0046473 0.0100844 -0.136386
0.00354409 0.0102085 -0.137153
0.00245972 0.010335 -0.137908
0.00140127 0.0104654 -0.138647
-0.016866 -0.00188447 -0.132065
-0.0186779 -0.00204222 -0.132913
-0.0204538 -0.00218719 -0.133773
-0.0221852 -0.00231777 -0.134647
-0.0238611 -0.00243248 -0.135536
-0.0254688 -0.0025294 -0.136444
-0.0147204 -0.00185113 -0.132049
-0.016473 -0.00201207 -0.132896
-0.0181925 -0.00216015 -0.133755
-0.0198701 -0.00229368 -0.134628
-0.0214953 -0.00241096 -0.135516
-0.0230559 -0.00251005 -0.136422
-0.0108317 -0.00163337 -0.131194
-0.0125476 -0.00180844 -0.13203
-0.01424 -0.0019724 -0.132877
-0.0159019 -0.00212351 -0.133735
-0.0175247 -0.00225991 -0.134606
-0.0190984 -0.00237975 -0.135493
-0.0206111 -0.002481 -0.136397
-0.00869801 -0.00157806 -0.131173
-0.0103507 -0.00175593 -0.132008
-0.0119821 -0.00192279 -0.132854
-0.0135855 -0.00207679 -0.133711
-0.0151526 -0.00221598 -0.134582
-0.0166739 -0.00233836 -0.135467
-0.0181379 -0.00244152 -0.13637
-0.00654464 -0.0015127 -0.131148
-0.00813337 -0.00169315 -0.131983
-0.00970288 -0.00186272 -0.132828
-0.0112468 -0.00201949 -0.133685
-0.0127574 -0.0021614 -0.134555
-0.0142254 -0.00228628 -0.135439
-0.0156398 -0.00239168 -0.13634
-0.00283865 -0.00124518 -0.130292
-0.0043751 -0.00143687 -0.131119
-0.00589918 -0.00161963 -0.131954
-0.00740598 -0.0017917 -0.132799
-0.00888959 -0.00195109 -0.133656
-0.0103428 -0.00209562 -0.134524
-0.0117568 -0.00222297 -0.135408
-0.0131206 -0.00233046 -0.136307
-0.000723511 -0.0011567 -0.130259
-0.00219317 -0.00135009 -0.131086
-0.00365195 -0.00153486 -0.131921
-0.00509533 -0.00170919 -0.132767
-0.00651787 -0.00187102 -0.133623
-0.0079129 -0.00201806 -0.134491
-0.00927212 -0.00214785 -0.135373
-0.0105851 -0.00225754 -0.136271
0.00139977 -0.00105722 -0.130221
-2.71356e-06 -0.00125192 -0.131048
-0.00139565 -0.00143834 -0.131884
-0.00277499 -0.00161463 -0.13273
-0.00413578 -0.00177869 -0.133586
-0.00547186 -0.00192812 -0.134454
-0.00677556 -0.0020603 -0.135335
-0.00803706 -0.00217221 -0.136232
0.00486753 -0.000744452 -0.129357
0.00352726 -0.000946336 -0.130178
0.00219222 -0.00114188 -0.131006
0.000865519 -0.00132953 -0.131843
-0.000449261 -0.00150743 -0.132689
-0.00174765 -0.00167347 -0.133545
-0.00302409 -0.00182514 -0.134413
-0.00427154 -0.00195964 -0.135294
-0.0054809 -0.00207379 -0.13619
0.00692679 -0.000621812 -0.129308
0.0056548 -0.000823574 -0.130129
0.0043874 -0.00101948 -0.130958
0.00312718 -0.00120787 -0.131796
0.00187737 -0.00138699 -0.132643
0.000641937 -0.0015547 -0.133499
-0.000574199 -0.00170841 -0.134367
-0.0017647 -0.00184514 -0.135248
-0.0029212 -0.00196153 -0.136144
0.00898218 -0.000487492 -0.129253
0.00777827 -0.000688612 -0.130075
0.00657839 -0.000884255 -0.130905
0.00538475 -0.00107283 -0.131744
0.00420018 -0.00125267 -0.132592
0.00302816 -0.00142167 -0.133449
0.00187294 -0.00157716 -0.134317
0.000740062 -0.001716 -0.135198
-0.000362825 -0.00183462 -0.136094
0.0110294 -0.000341045 -0.129191
0.00989322 -0.000540791 -0.130015
0.00876062 -0.000735553 -0.130846
0.00763352 -0.000923784 -0.131686
0.00651432 -0.00110384 -0.132535
0.00540595 -0.00127367 -0.133393
0.00431203 -0.0014306 -0.134262
0.00323727 -0.0015714 -0.135144
0.00218897 -0.00169219 -0.13604
-0.0175505 0.00802276 -0.137003
-0.0193673 0.00814223 -0.137726
-0.0211481 0.00826439 -0.138435
-0.0228846 0.00838942 -0.139127
-0.0245651 0.00851766 -0.139798
-0.0154072 0.00818219 -0.136815
-0.0171648 0.00830213 -0.137543
-0.0188896 0.00842463 -0.138257
-0.0205725 0.00855003 -0.138955
-0.0222028 0.00867873 -0.139633
-0.0115153 0.00821707 -0.135878
-0.0132366 0.00833514 -0.136622
-0.0149343 0.00845522 -0.137355
-0.0166018 0.00857784 -0.138075
-0.0182302 0.00870335 -0.138779
-0.0198095 0.00883225 -0.139464
-0.0213274 0.00896506 -0.140127
-0.00938361 0.00836334 -0.135676
-0.0110419 0.00848122 -0.136424
-0.012679 0.00860124 -0.137162
-0.0142882 0.00872371 -0.137888
-0.0158613 0.00884905 -0.138599
-0.0173885 0.00897785 -0.139292
-0.0188581 0.00911097 -0.139962
-0.00723219 0.00850286 -0.13547
-0.00882677 0.0086203 -0.136222
-0.0104023 0.0087399 -0.136966
-0.0119523 0.00886191 -0.137698
-0.0134692 0.00898679 -0.138416
-0.0149436 0.00911515 -0.139116
-0.0163642 0.00924808 -0.139794
-0.00352217 0.00852046 -0.134495
-0.00506459 0.00863534 -0.135259
-0.00659479 0.00875202 -0.136017
-0.00810791 0.00887087 -0.136765
-0.00959802 0.00899211 -0.137504
-0.0110579 0.0091162 -0.138228
-0.0124787 0.00924378 -0.138936
-0.0138494 0.00937583 -0.139623
-0.0014087 0.00864666 -0.134277
-0.00288456 0.00876037 -0.135045
-0.00434975 0.00887608 -0.135807
-0.00579976 0.00899385 -0.136561
-0.00722917 0.00911398 -0.137306
-0.00863128 0.00923691 -0.138037
-0.00999776 0.00936333 -0.138753
-0.0113181 0.00949398 -0.139449
0.000712935 0.00876555 -0.134054
-0.000695991 0.00887784 -0.134826
-0.00209561 0.00899214 -0.135593
-0.0034819 0.00910849 -0.136353
-0.00484993 0.00922713 -0.137104
-0.00619354 0.00934855 -0.137843
-0.007505 0.00947341 -0.138567
-0.00877444 0.00960259 -0.139271
0.00418557 0.00876821 -0.13305
0.00283882 0.00887683 -0.133828
0.00149709 0.00898736 -0.134604
0.000163431 0.00909989 -0.135375
-0.00115862 0.00921443 -0.136141
-0.00246464 0.00933122 -0.136898
-0.00374907 0.0094507 -0.137645
-0.00500482 0.00957359 -0.138377
-0.00622271 0.00970084 -0.139091
0.00624348 0.00887382 -0.132817
0.0049648 0.00898015 -0.133598
0.00369044 0.00908859 -0.134378
0.002423 0.00919899 -0.135154
0.00116559 0.00931134 -0.135925
-7.78936e-05 0.00942584 -0.136689
-0.0013025 0.00954296 -0.137443
-0.00250186 0.00966342 -0.138184
-0.00366753 0.00978824 -0.138908
0.0107233 0.00877058 -0.131014
0.00951018 0.00887004 -0.131797
0.00829752 0.00897164 -0.132581
0.00708669 0.00907533 -0.133365
0.00587963 0.00918123 -0.134148
0.00467851 0.00928909 -0.134929
0.00348602 0.00939883 -0.135706
0.00230551 0.0095106 -0.136477
0.0011413 0.0096249 -0.137239
-1.00446e-06 0.00974246 -0.137989
-0.00111379 0.00986431 -0.138722
0.0126339 0.00886694 -0.130771
0.0114885 0.00896309 -0.131556
0.0103436 0.00906147 -0.132342
0.0092003 0.0091621 -0.133129
0.00806021 0.00926501 -0.133916
0.00692524 0.00936992 -0.134701
0.00579771 0.00947662 -0.135483
0.00468046 0.00958514 -0.136261
0.0035771 0.00969593 -0.137031
0.0024924 0.0098098 -0.13779
0.00143338 0.00992844 -0.138534
-0.0175105 0.00714031 -0.136566
-0.0175306 0.00757952 -0.136785
-0.0193286 0.00723484 -0.137299
-0.0193481 0.00768643 -0.137513
-0.0211109 0.007333 -0.13802
-0.0211297 0.0077965 -0.138228
-0.022849 0.0074351 -0.138726
-0.022867 0.00791 -0.138927
-0.0245315 0.00754162 -0.139416
-0.0245486 0.00802732 -0.139607
-0.0153654 0.00728801 -0.136393
-0.0153863 0.00773296 -0.136604
-0.0171241 0.00738263 -0.13713
-0.0171446 0.00784013 -0.137337
-0.0188503 0.00748078 -0.137856
-0.0188701 0.00795037 -0.138057
-0.0205348 0.00758289 -0.138568
-0.0205538 0.00806406 -0.138762
-0.0221669 0.00768958 -0.139263
-0.0221851 0.00818169 -0.139449
-0.0114707 0.007339 -0.135465
-0.011493 0.00777587 -0.135672
-0.0131928 0.0074306 -0.136216
-0.0132147 0.0078806 -0.136419
-0.0148916 0.00752503 -0.136958
-0.0149131 0.00798775 -0.137157
-0.0165603 0.00762296 -0.137688
-0.0165812 0.00809793 -0.137882
-0.0181903 0.00772486 -0.138406
-0.0182104 0.00821155 -0.138593
-0.0197712 0.00783146 -0.139107
-0.0197906 0.00832923 -0.139286
-0.0212912 0.00794322 -0.13979
-0.0213096 0.00845145 -0.139959
-0.00933714 0.00747665 -0.13528
-0.00936034 0.00791771 -0.135478
-0.0109961 0.00756776 -0.136034
-0.011019 0.00802209 -0.13623
-0.0126342 0.00766183 -0.136781
-0.0126566 0.00812902 -0.136972
-0.0142445 0.00775929 -0.137517
-0.0142664 0.00823888 -0.137703
-0.015819 0.00786072 -0.13824
-0.0158402 0.00835218 -0.13842
-0.0173478 0.00796684 -0.138948
-0.0173683 0.00846956 -0.13912
-0.0188194 0.00807867 -0.139637
-0.018839 0.00859197 -0.1398
-0.00718379 0.007609 -0.13509
-0.00720791 0.00805351 -0.13528
-0.00877899 0.00769943 -0.135849
-0.00880282 0.00815733 -0.136036
-0.0103553 0.0077928 -0.1366
-0.0103788 0.00826369 -0.136783
-0.0119064 0.00788952 -0.137341
-0.0119294 0.00837294 -0.13752
-0.0134245 0.00799021 -0.13807
-0.0134469 0.00848563 -0.138244
-0.0149004 0.00809563 -0.138785
-0.0149221 0.00860243 -0.138951
-0.0163229 0.00820703 -0.139481
-0.0163437 0.00872452 -0.139638
-0.00347145 0.00764877 -0.134127
-0.00349668 0.00808219 -0.134312
-0.0050142 0.00773583 -0.134896
-0.00503928 0.00818303 -0.135078
-0.0065449 0.0078253 -0.135659
-0.00656975 0.00828598 -0.135838
-0.00805868 0.0079177 -0.136415
-0.00808322 0.00839148 -0.136591
-0.00954967 0.0080134 -0.137162
-0.0095738 0.00849983 -0.137333
-0.0110107 0.00811303 -0.137897
-0.0110343 0.00861158 -0.138063
-0.0124329 0.00821744 -0.138619
-0.0124558 0.00872747 -0.138778
-0.0138053 0.00832776 -0.139323
-0.0138275 0.00884857 -0.139473
-0.00135607 0.00777104 -0.133926
-0.00138222 0.0082063 -0.134102
-0.00283213 0.00785681 -0.134698
-0.00285819 0.00830591 -0.134872
-0.00429766 0.00794514 -0.135465
-0.00432356 0.00840779 -0.135636
-0.0057482 0.00803627 -0.136226
-0.00577386 0.0085121 -0.136394
-0.00717835 0.00813064 -0.136979
-0.00720367 0.00861922 -0.137143
-0.00858145 0.00822892 -0.137721
-0.00860631 0.0087297 -0.13788
-0.00994922 0.00833195 -0.138449
-0.00997348 0.00884431 -0.138602
-0.0112711 0.0084407 -0.139161
-0.0112947 0.00896392 -0.139305
0.000767535 0.00788759 -0.13372
0.000740446 0.00832389 -0.133888
-0.000641454 0.00797188 -0.134496
-0.000668521 0.00842204 -0.134662
-0.00204128 0.0080587 -0.135267
-0.00206826 0.00852245 -0.135431
-0.00342795 0.00814825 -0.136033
-0.00345475 0.00862526 -0.136194
-0.00479656 0.00824098 -0.136792
-0.0048231 0.0087308 -0.136949
-0.006141 0.00833755 -0.13754
-0.00616715 0.00883965 -0.137692
-0.0074536 0.00843885 -0.138276
-0.00747923 0.00895261 -0.138422
-0.00872448 0.00854596 -0.138996
-0.00874945 0.00907065 -0.139134
0.00424197 0.00791795 -0.13273
0.00421403 0.00834043 -0.132891
0.00289544 0.0079982 -0.133511
0.00286738 0.00843471 -0.13367
0.00155379 0.00808071 -0.13429
0.00152569 0.00853108 -0.134448
0.000220082 0.00816572 -0.135066
0.000191994 0.00862969 -0.135221
-0.00110219 0.00825339 -0.135837