# vtk DataFile Version 3.0
Generated by Jean Bénézech
ASCII
DATASET UNSTRUCTURED_GRID
POINTS 4598 double
55.69 131.564 322
55.79 131.651 320
55.89 131.739 318
55.99 131.826 316
56.09 131.913 314
56.19 132 312
56.29 132.087 310
56.39 132.174 308
56.49 132.261 306
55.59 130.288 324
56.59 131.141 304
55.59 129.099 324
56.59 129.934 304
55.59 127.91 324
56.59 128.727 304
55.49 126.641 326
56.59 127.519 304
55.49 125.454 326
56.29 126.078 310
56.39 126.156 308
56.49 126.234 306
55.49 124.267 326
56.29 124.876 310
55.39 123.006 328
56.19 123.6 312
55.39 121.82 328
56.19 122.4 312
55.39 120.635 328
56.19 121.2 312
55.29 119.381 330
56.19 120 312
55.29 118.197 330
56.19 118.8 312
55.19 116.949 332
56.29 117.665 310
55.19 115.767 332
56.29 116.463 310
55.29 114.647 330
55.39 114.708 328
55.49 114.77 326
55.59 114.831 324
55.69 114.893 322
55.79 114.954 320
55.89 115.016 318
56.29 115.261 310
55.99 113.881 316
56.09 113.94 314
56.19 114 312
55.44 131.564 322
55.54 131.651 320
55.64 131.739 318
55.74 131.826 316
55.84 131.913 314
55.94 132 312
56.04 132.087 310
56.14 132.174 308
56.24 132.261 306
55.34 130.288 324
56.34 131.141 304
55.34 129.099 324
56.34 129.934 304
55.34 127.91 324
56.34 128.727 304
55.24 126.641 326
56.34 127.519 304
55.24 125.454 326
56.04 126.078 310
56.14 126.156 308
56.24 126.234 306
55.24 124.267 326
56.04 124.876 310
55.14 123.006 328
55.94 123.6 312
55.14 121.82 328
55.94 122.4 312
55.14 120.635 328
55.94 121.2 312
55.04 119.381 330
55.94 120 312
55.04 118.197 330
55.94 118.8 312
54.94 116.949 332
56.04 117.665 310
54.94 115.767 332
56.04 116.463 310
55.04 114.647 330
55.14 114.708 328
55.24 114.77 326
55.34 114.831 324
55.44 114.893 322
55.54 114.954 320
55.64 115.016 318
56.04 115.261 310
55.74 113.881 316
55.84 113.94 314
55.94 114 312
55.19 131.564 322
55.29 131.651 320
55.39 131.739 318
55.49 131.826 316
55.59 131.913 314
55.69 132 312
55.79 132.087 310
55.89 132.174 308
55.99 132.261 306
55.09 130.288 324
56.09 131.141 304
55.09 129.099 324
56.09 129.934 304
55.09 127.91 324
56.09 128.727 304
54.99 126.641 326
56.09 127.519 304
54.99 125.454 326
55.79 126.078 310
55.89 126.156 308
55.99 126.234 306
54.99 124.267 326
55.79 124.876 310
54.89 123.006 328
55.69 123.6 312
54.89 121.82 328
55.69 122.4 312
54.89 120.635 328
55.69 121.2 312
54.79 119.381 330
55.69 120 312
54.79 118.197 330
55.69 118.8 312
54.69 116.949 332
55.79 117.665 310
54.69 115.767 332
55.79 116.463 310
54.79 114.647 330
54.89 114.708 328
54.99 114.77 326
55.09 114.831 324
55.19 114.893 322
55.29 114.954 320
55.39 115.016 318
55.79 115.261 310
55.49 113.881 316
55.59 113.94 314
55.69 114 312
55.18 131.564 322
55.28 131.651 320
55.38 131.739 318
55.48 131.826 316
55.58 131.913 314
55.68 132 312
55.78 132.087 310
55.88 132.174 308
55.98 132.261 306
55.08 130.288 324
56.08 131.141 304
55.08 129.099 324
56.08 129.934 304
55.08 127.91 324
56.08 128.727 304
54.98 126.641 326
56.08 127.519 304
54.98 125.454 326
55.78 126.078 310
55.88 126.156 308
55.98 126.234 306
54.98 124.267 326
55.78 124.876 310
54.88 123.006 328
55.68 123.6 312
54.88 121.82 328
55.68 122.4 312
54.88 120.635 328
55.68 121.2 312
54.78 119.381 330
55.68 120 312
54.78 118.197 330
55.68 118.8 312
54.68 116.949 332
55.78 117.665 310
54.68 115.767 332
55.78 116.463 310
54.78 114.647 330
54.88 114.708 328
54.98 114.77 326
55.08 114.831 324
55.18 114.893 322
55.28 114.954 320
55.38 115.016 318
55.78 115.261 310
55.48 113.881 316
55.58 113.94 314
55.68 114 312
54.93 131.564 322
55.03 131.651 320
55.13 131.739 318
55.23 131.826 316
55.33 131.913 314
55.43 132 312
55.53 132.087 310
55.63 132.174 308
55.73 132.261 306
54.83 130.288 324
55.83 131.141 304
54.83 129.099 324
55.83 129.934 304
54.83 127.91 324
55.83 128.727 304
54.73 126.641 326
55.83 127.519 304
54.73 125.454 326
55.53 126.078 310
55.63 126.156 308
55.73 126.234 306
54.73 124.267 326
55.53 124.876 310
54.63 123.006 328
55.43 123.6 312
54.63 121.82 328
55.43 122.4 312
54.63 120.635 328
55.43 121.2 312
54.53 119.381 330
55.43 120 312
54.53 118.197 330
55.43 118.8 312
54.43 116.949 332
55.53 117.665 310
54.43 115.767 332
55.53 116.463 310
54.53 114.647 330
54.63 114.708 328
54.73 114.77 326
54.83 114.831 324
54.93 114.893 322
55.03 114.954 320
55.13 115.016 318
55.53 115.261 310
55.23 113.881 316
55.33 113.94 314
55.43 114 312
54.92 131.564 322
55.02 131.651 320
55.12 131.739 318
55.22 131.826 316
55.32 131.913 314
55.42 132 312
55.52 132.087 310
55.62 132.174 308
55.72 132.261 306
54.82 130.288 324
55.82 131.141 304
54.82 129.099 324
55.82 129.934 304
54.82 127.91 324
55.82 128.727 304
54.72 126.641 326
55.82 127.519 304
54.72 125.454 326
55.52 126.078 310
55.62 126.156 308
55.72 126.234 306
54.72 124.267 326
55.52 124.876 310
54.62 123.006 328
55.42 123.6 312
54.62 121.82 328
55.42 122.4 312
54.62 120.635 328
55.42 121.2 312
54.52 119.381 330
55.42 120 312
54.52 118.197 330
55.42 118.8 312
54.42 116.949 332
55.52 117.665 310
54.42 115.767 332
55.52 116.463 310
54.52 114.647 330
54.62 114.708 328
54.72 114.77 326
54.82 114.831 324
54.92 114.893 322
55.02 114.954 320
55.12 115.016 318
55.52 115.261 310
55.22 113.881 316
55.32 113.94 314
55.42 114 312
54.67 131.564 322
54.77 131.651 320
54.87 131.739 318
54.97 131.826 316
55.07 131.913 314
55.17 132 312
55.27 132.087 310
55.37 132.174 308
55.47 132.261 306
54.57 130.288 324
55.57 131.141 304
54.57 129.099 324
55.57 129.934 304
54.57 127.91 324
55.57 128.727 304
54.47 126.641 326
55.57 127.519 304
54.47 125.454 326
55.27 126.078 310
55.37 126.156 308
55.47 126.234 306
54.47 124.267 326
55.27 124.876 310
54.37 123.006 328
55.17 123.6 312
54.37 121.82 328
55.17 122.4 312
54.37 120.635 328
55.17 121.2 312
54.27 119.381 330
55.17 120 312
54.27 118.197 330
55.17 118.8 312
54.17 116.949 332
55.27 117.665 310
54.17 115.767 332
55.27 116.463 310
54.27 114.647 330
54.37 114.708 328
54.47 114.77 326
54.57 114.831 324
54.67 114.893 322
54.77 114.954 320
54.87 115.016 318
55.27 115.261 310
54.97 113.881 316
55.07 113.94 314
55.17 114 312
54.42 131.564 322
54.52 131.651 320
54.62 131.739 318
54.72 131.826 316
54.82 131.913 314
54.92 132 312
55.02 132.087 310
55.12 132.174 308
55.22 132.261 306
54.32 130.288 324
55.32 131.141 304
54.32 129.099 324
55.32 129.934 304
54.32 127.91 324
55.32 128.727 304
54.22 126.641 326
55.32 127.519 304
54.22 125.454 326
55.02 126.078 310
55.12 126.156 308
55.22 126.234 306
54.22 124.267 326
55.02 124.876 310
54.12 123.006 328
54.92 123.6 312
54.12 121.82 328
54.92 122.4 312
54.12 120.635 328
54.92 121.2 312
54.02 119.381 330
54.92 120 312
54.02 118.197 330
54.92 118.8 312
53.92 116.949 332
55.02 117.665 310
53.92 115.767 332
55.02 116.463 310
54.02 114.647 330
54.12 114.708 328
54.22 114.77 326
54.32 114.831 324
54.42 114.893 322
54.52 114.954 320
54.62 115.016 318
55.02 115.261 310
54.72 113.881 316
54.82 113.94 314
54.92 114 312
54.17 131.564 322
54.27 131.651 320
54.37 131.739 318
54.47 131.826 316
54.57 131.913 314
54.67 132 312
54.77 132.087 310
54.87 132.174 308
54.97 132.261 306
54.07 130.288 324
55.07 131.141 304
54.07 129.099 324
55.07 129.934 304
54.07 127.91 324
55.07 128.727 304
53.97 126.641 326
55.07 127.519 304
53.97 125.454 326
54.77 126.078 310
54.87 126.156 308
54.97 126.234 306
53.97 124.267 326
54.77 124.876 310
53.87 123.006 328
54.67 123.6 312
53.87 121.82 328
54.67 122.4 312
53.87 120.635 328
54.67 121.2 312
53.77 119.381 330
54.67 120 312
53.77 118.197 330
54.67 118.8 312
53.67 116.949 332
54.77 117.665 310
53.67 115.767 332
54.77 116.463 310
53.77 114.647 330
53.87 114.708 328
53.97 114.77 326
54.07 114.831 324
54.17 114.893 322
54.27 114.954 320
54.37 115.016 318
54.77 115.261 310
54.47 113.881 316
54.57 113.94 314
54.67 114 312
53.92 131.564 322
54.02 131.651 320
54.12 131.739 318
54.22 131.826 316
54.32 131.913 314
54.42 132 312
54.52 132.087 310
54.62 132.174 308
54.72 132.261 306
53.82 130.288 324
54.82 131.141 304
53.82 129.099 324
54.82 129.934 304
53.82 127.91 324
54.82 128.727 304
53.72 126.641 326
54.82 127.519 304
53.72 125.454 326
54.52 126.078 310
54.62 126.156 308
54.72 126.234 306
53.72 124.267 326
54.52 124.876 310
53.62 123.006 328
54.42 123.6 312
53.62 121.82 328
54.42 122.4 312
53.62 120.635 328
54.42 121.2 312
53.52 119.381 330
54.42 120 312
53.52 118.197 330
54.42 118.8 312
53.42 116.949 332
54.52 117.665 310
53.42 115.767 332
54.52 116.463 310
53.52 114.647 330
53.62 114.708 328
53.72 114.77 326
53.82 114.831 324
53.92 114.893 322
54.02 114.954 320
54.12 115.016 318
54.52 115.261 310
54.22 113.881 316
54.32 113.94 314
54.42 114 312
53.67 131.564 322
53.77 131.651 320
53.87 131.739 318
53.97 131.826 316
54.07 131.913 314
54.17 132 312
54.27 132.087 310
54.37 132.174 308
54.47 132.261 306
53.57 130.288 324
54.57 131.141 304
53.57 129.099 324
54.57 129.934 304
53.57 127.91 324
54.57 128.727 304
53.47 126.641 326
54.57 127.519 304
53.47 125.454 326
54.27 126.078 310
54.37 126.156 308
54.47 126.234 306
53.47 124.267 326
54.27 124.876 310
53.37 123.006 328
54.17 123.6 312
53.37 121.82 328
54.17 122.4 312
53.37 120.635 328
54.17 121.2 312
53.27 119.381 330
54.17 120 312
53.27 118.197 330
54.17 118.8 312
53.17 116.949 332
54.27 117.665 310
53.17 115.767 332
54.27 116.463 310
53.27 114.647 330
53.37 114.708 328
53.47 114.77 326
53.57 114.831 324
53.67 114.893 322
53.77 114.954 320
53.87 115.016 318
54.27 115.261 310
53.97 113.881 316
54.07 113.94 314
54.17 114 312
53.42 131.564 322
53.52 131.651 320
53.62 131.739 318
53.72 131.826 316
53.82 131.913 314
53.92 132 312
54.02 132.087 310
54.12 132.174 308
54.22 132.261 306
53.32 130.288 324
54.32 131.141 304
53.32 129.099 324
54.32 129.934 304
53.32 127.91 324
54.32 128.727 304
53.22 126.641 326
54.32 127.519 304
53.22 125.454 326
54.02 126.078 310
54.12 126.156 308
54.22 126.234 306
53.22 124.267 326
54.02 124.876 310
53.12 123.006 328
53.92 123.6 312
53.12 121.82 328
53.92 122.4 312
53.12 120.635 328
53.92 121.2 312
53.02 119.381 330
53.92 120 312
53.02 118.197 330
53.92 118.8 312
52.92 116.949 332
54.02 117.665 310
52.92 115.767 332
54.02 116.463 310
[...]
POINT_DATA 4598
SCALARS DISPLACEMENT double 3
LOOKUP_TABLE default
0 0 0
0 0 0
0 0 0
0 0 0
0 0 0
0 0 0
0 0 0
0 0 0
0 0 0
0 0 0
0 0 0
0 0 0
0 0 0
0 0 0
0 0 0
0 0 0
0 0 0
0 0 0
0 0 0
0 0 0
0 0 0
0 0 0
0 0 0
0 0 0
0 0 0
0 0 0
0 0 0
0 0 0
0 0 0
0 0 0
0 0 0
0 0 0
0 0 0
0 0 0
0 0 0
0 0 0
0 0 0
0 0 0
0 0 0
0 0 0
0 0 0
0 0 0
0 0 0
0 0 0
0 0 0
0 0 0
0 0 0
0 0 0
0 0 0
0 0 0
0 0 0
0 0 0
0 0 0
0 0 0
0 0 0
0 0 0
0 0 0
0 0 0
0 0 0
0 0 0
0 0 0
0 0 0
0 0 0
0 0 0
0 0 0
0 0 0
0 0 0
0 0 0
0 0 0
0 0 0
0 0 0
0 0 0
0 0 0
0 0 0
0 0 0
0 0 0
0 0 0
0 0 0
0 0 0
0 0 0
0 0 0
0 0 0
0 0 0
0 0 0
0 0 0
0 0 0
0 0 0
0 0 0
0 0 0
0 0 0
0 0 0
0 0 0
0 0 0
0 0 0
0 0 0
0 0 0
0 0 0
0 0 0
0 0 0
0 0 0
0 0 0
0 0 0
0 0 0
0 0 0
0 0 0
0 0 0
0 0 0
0 0 0
0 0 0
0 0 0
0 0 0
0 0 0
0 0 0
0 0 0
0 0 0
0 0 0
0 0 0
0 0 0
0 0 0
0 0 0
0 0 0
0 0 0
0 0 0
0 0 0
0 0 0
0 0 0
0 0 0
0 0 0
0 0 0
0 0 0
0 0 0
0 0 0
0 0 0
0 0 0
0 0 0
0 0 0
0 0 0
0 0 0
0 0 0
0 0 0
0 0 0
0 0 0
0 0 0
0 0 0
0 0 0
0 0 0
0 0 0
0 0 0
0 0 0
0 0 0
0 0 0
0 0 0
0 0 0
0 0 0
0 0 0
0 0 0
0 0 0
0 0 0
0 0 0
0 0 0
0 0 0
0 0 0
0 0 0
0 0 0
0 0 0
0 0 0
0 0 0
0 0 0
0 0 0
0 0 0
0 0 0
0 0 0
0 0 0
0 0 0
0 0 0
0 0 0
0 0 0
0 0 0
0 0 0
0 0 0
0 0 0
0 0 0
0 0 0
0 0 0
0 0 0
0 0 0
0 0 0
0 0 0
0 0 0
0 0 0
0 0 0
0 0 0
0 0 0
0 0 0
0 0 0
0 0 0
0 0 0
0 0 0
0 0 0
0 0 0
0 0 0
0 0 0
0 0 0
0 0 0
0 0 0
0 0 0
0 0 0
0 0 0
0 0 0
0 0 0
0 0 0
0 0 0
0 0 0
0 0 0
0 0 0
0 0 0
0 0 0
0 0 0
0 0 0
0 0 0
0 0 0
0 0 0
0 0 0
0 0 0
0 0 0
0 0 0
0 0 0
0 0 0
0 0 0
0 0 0
0 0 0
0 0 0
0 0 0
0 0 0
0 0 0
0 0 0
0 0 0
0 0 0
0 0 0
0 0 0
0 0 0
0 0 0
0 0 0
0 0 0
0 0 0
0 0 0
0 0 0
0 0 0
0 0 0
0 0 0
0 0 0
0 0 0
0 0 0
0 0 0
0 0 0
0 0 0
0 0 0
0 0 0
0 0 0
0 0 0
0 0 0
0 0 0
0 0 0
0 0 0
0 0 0
0 0 0
0 0 0
0 0 0
0 0 0
0 0 0
0 0 0
0 0 0
0 0 0
0 0 0
0 0 0
0 0 0
0 0 0
0 0 0
0 0 0
0 0 0
0 0 0
0 0 0
0 0 0
0 0 0
0 0 0
0 0 0
0 0 0
0 0 0
0 0 0
0 0 0
0 0 0
0 0 0
0 0 0
0 0 0
0 0 0
0 0 0
0 0 0
0 0 0
0 0 0
0 0 0
0 0 0
0 0 0
0 0 0
0 0 0
0 0 0
0 0 0
0 0 0
0 0 0
0 0 0
0 0 0
0 0 0
0 0 0
0 0 0
0 0 0
0 0 0
0 0 0
0 0 0
0 0 0
0 0 0
0 0 0
0 0 0
0 0 0
0 0 0
0 0 0
0 0 0
0 0 0
0 0 0
0 0 0
0 0 0
0 0 0
0 0 0
0 0 0
0 0 0
0 0 0
0 0 0
0 0 0
0 0 0
0 0 0
0 0 0
0 0 0
0 0 0
0 0 0
0 0 0
0 0 0
0 0 0
0 0 0
0 0 0
0 0 0
0 0 0
0 0 0
0 0 0
0 0 0
0 0 0
0 0 0
0 0 0
0 0 0
0 0 0
0 0 0
0 0 0
0 0 0
0 0 0
0 0 0
0 0 0
0 0 0
0 0 0
0 0 0
0 0 0
0 0 0
0 0 0
0 0 0
0 0 0
0 0 0
0 0 0
0 0 0
0 0 0
0 0 0
0 0 0
0 0 0
0 0 0
0 0 0
0 0 0
0 0 0
0 0 0
0 0 0
0 0 0
0 0 0
0 0 0
0 0 0
0 0 0
0 0 0
0 0 0
0 0 0
0 0 0
0 0 0
0 0 0
0 0 0
0 0 0
0 0 0
0 0 0
0 0 0
0 0 0
0 0 0
0 0 0
0 0 0
0 0 0
0 0 0
0 0 0
0 0 0
0 0 0
0 0 0
0 0 0
0 0 0
0 0 0
0 0 0
0 0 0
0 0 0
0 0 0
0 0 0
0 0 0
0 0 0
0 0 0
0 0 0
0 0 0
0 0 0
0 0 0
0 0 0
0 0 0
0 0 0
0 0 0
0 0 0
0 0 0
0 0 0
0 0 0
0 0 0
0 0 0
0 0 0
0 0 0
0 0 0
0 0 0
0 0 0
0 0 0
0 0 0
0 0 0
0 0 0
0 0 0
0 0 0
0 0 0
0 0 0
0 0 0
0 0 0
0 0 0
0 0 0
0 0 0
0 0 0
0 0 0
0 0 0
0 0 0
0 0 0
0 0 0
0 0 0
0 0 0
0 0 0
0 0 0
0 0 0
0 0 0
0 0 0
0 0 0
0 0 0
0 0 0
0 0 0
0 0 0
0 0 0
0 0 0
0 0 0
0 0 0
0 0 0
0 0 0
0 0 0
0 0 0
0 0 0
0 0 0
0 0 0
0 0 0
0 0 0
0 0 0
0 0 0
0 0 0
0 0 0
0 0 0
0 0 0
0 0 0
0 0 0
0 0 0
0 0 0
0 0 0
0 0 0
0 0 0
0 0 0
0 0 0
0 0 0
0 0 0
0 0 0
0 0 0
0 0 0
0 0 0
0 0 0
0 0 0
0 0 0
0 0 0
0 0 0
0 0 0
0 0 0
0 0 0
0 0 0
0 0 0
0 0 0
0 0 0
0 0 0
0 0 0
0 0 0
0 0 0
0 0 0
0 0 0
0 0 0
0 0 0
0 0 0
0 0 0
0 0 0
0 0 0
0 0 0
0 0 0
0 0 0
0 0 0
0 0 0
0 0 0
0 0 0
0 0 0
0 0 0
0 0 0
0 0 0
0 0 0
0 0 0
0 0 0
0 0 0
0 0 0
0 0 0
0 0 0
0 0 0
0 0 0
0 0 0
0 0 0
0 0 0
0 0 0
0 0 0
0 0 0
0 0 0
0 0 0
0 0 0
0 0 0
0 0 0
0 0 0
0 0 0
0 0 0
0 0 0
0 0 0
0 0 0
0 0 0
0 0 0
0 0 0
0 0 0
0 0 0
0 0 0
0 0 0
0 0 0
0 0 0
0 0 0
0 0 0
0 0 0
0 0 0
0 0 0
0 0 0
0 0 0
0 0 0
0 0 0
0 0 0
0 0 0
0 0 0
0 0 0
0 0 0
0 0 0
0 0 0
0 0 0
0 0 0
0 0 0
0 0 0
0 0 0
0 0 0
0 0 0
0 0 0
0 0 0
0 0 0
0 0 0
0 0 0
0 0 0
0 0 0
0 0 0
0 0 0
0 0 0
0 0 0
0 0 0
0 0 0
0 0 0
0 0 0
0 0 0
0 0 0
0 0 0
0 0 0
0 0 0
0 0 0
0 0 0
0 0 0
0 0 0
0 0 0
0 0 0
0 0 0
0 0 0
0 0 0
0 0 0
0 0 0
0 0 0
0 0 0
0 0 0
0 0 0
0 0 0
0 0 0
0 0 0
0 0 0
0 0 0
0 0 0
0 0 0
0 0 0
0 0 0
0 0 0
0 0 0
0 0 0
0 0 0
0 0 0
0 0 0
0 0 0
0 0 0
0 0 0
0 0 0
0 0 0
0 0 0
0 0 0
0 0 0
0 0 0
0 0 0
0 0 0
0 0 0
0 0 0
0 0 0
0 0 0
0 0 0
0 0 0
0 0 0
0 0 0
0 0 0
0 0 0
0 0 0
0 0 0
0 0 0
0 0 0
0 0 0
0 0 0
0 0 0
0 0 0
0 0 0
0 0 0
0 0 0
0 0 0
0 0 0
0 0 0
0 0 0
0 0 0
0 0 0
0 0 0
0 0 0
0 0 0
0 0 0
0 0 0
0 0 0
0 0 0
0 0 0
0 0 0
0 0 0
0 0 0
0 0 0
0 0 0
0 0 0
0 0 0
0 0 0
0 0 0
0 0 0
0 0 0
0 0 0
0 0 0
0 0 0
0 0 0
0 0 0
0 0 0
0 0 0
0 0 0
0 0 0
0 0 0
0 0 0
0 0 0
0 0 0
0 0 0
0 0 0
0 0 0
0 0 0
0 0 0
0 0 0
0 0 0
0 0 0
0 0 0
0 0 0
0 0 0
0 0 0
0 0 0
0 0 0
0 0 0
0 0 0
0 0 0
0 0 0
0 0 0
0 0 0
0 0 0
0 0 0
0 0 0
0 0 0
0 0 0
0 0 0
0 0 0
0 0 0
0 0 0
0 0 0
0 0 0
0 0 0
0 0 0
0 0 0
0 0 0
0 0 0
0 0 0
0 0 0
0 0 0
0 0 0
0 0 0
0 0 0
0 0 0
0 0 0
0 0 0
0 0 0
0 0 0
0 0 0
0 0 0
0 0 0
0 0 0
0 0 0
0 0 0
0 0 0
0 0 0
0 0 0
0 0 0
0 0 0
0 0 0
0 0 0
0 0 0
0 0 0
0 0 0
0 0 0
0 0 0
0 0 0
0 0 0
0 0 0
0 0 0
0 0 0
0 0 0
0 0 0
0 0 0
0 0 0
0 0 0
0 0 0
0 0 0
0 0 0
0 0 0
0 0 0
0 0 0
0 0 0
0 0 0
0 0 0
0 0 0
0 0 0
0 0 0
0 0 0
0 0 0
0 0 0
0 0 0
0 0 0
0 0 0
0 0 0
0 0 0
0 0 0
0 0 0
0 0 0
0 0 0
0 0 0
0 0 0
0 0 0
0 0 0
0 0 0
0 0 0
0 0 0
0 0 0
0 0 0
0 0 0
0 0 0
0 0 0
0 0 0
0 0 0
0 0 0
0 0 0
0 0 0
0 0 0
0 0 0
0 0 0
0 0 0
0 0 0
0 0 0
0 0 0
0 0 0
0 0 0
0 0 0
0 0 0
0 0 0
0 0 0
0 0 0
0 0 0
0 0 0
0 0 0
0 0 0
0 0 0
0 0 0
0 0 0
0 0 0
0 0 0
0 0 0
0 0 0
0 0 0
0 0 0
0 0 0
0 0 0
0 0 0
0 0 0
0 0 0
0 0 0
0 0 0
0 0 0
0 0 0
0 0 0
0 0 0
0 0 0
0 0 0
0 0 0
0 0 0
0 0 0
0 0 0
0 0 0
0 0 0
0 0 0
0 0 0
0 0 0
0 0 0
0 0 0
0 0 0
0 0 0
0 0 0
0 0 0
0 0 0
0 0 0
0 0 0
0 0 0
0 0 0
0 0 0
0 0 0
0 0 0
0 0 0
0 0 0
0 0 0
0 0 0
0 0 0
0 0 0
0 0 0
0 0 0
0 0 0
0 0 0
0 0 0
0 0 0
0 0 0
0 0 0
0 0 0
0 0 0
0 0 0
0 0 0
0 0 0
0 0 0
0 0 0
0 0 0
0 0 0
0 0 0
0 0 0
0 0 0
0 0 0
0 0 0
0 0 0
0 0 0
0 0 0
0 0 0
0 0 0
0 0 0
0 0 0
0 0 0
0 0 0
0 0 0
0 0 0
0 0 0
0 0 0
0 0 0
0 0 0
0 0 0
0 0 0
0 0 0
0 0 0
0 0 0
0 0 0
0 0 0
0 0 0
0 0 0
0 0 0
0 0 0
0 0 0
0 0 0
0 0 0
0 0 0
0 0 0
0 0 0
0 0 0
0 0 0
0 0 0
0 0 0
0 0 0
0 0 0
0 0 0
0 0 0
0 0 0
0 0 0
0 0 0
0 0 0
0 0 0
0 0 0
0 0 0
0 0 0
0 0 0
0 0 0
0 0 0
0 0 0
0 0 0
0 0 0
0 0 0
0 0 0
0 0 0
0 0 0
0 0 0
0 0 0
0 0 0
0 0 0
0 0 0
0 0 0
0 0 0
0 0 0
0 0 0
0 0 0
0 0 0
0 0 0
0 0 0
0 0 0
0 0 0
0 0 0
0 0 0
0 0 0
0 0 0
0 0 0
0 0 0
0 0 0
0 0 0
0 0 0
0 0 0
0 0 0
0 0 0
0 0 0
0 0 0
0 0 0
0 0 0
0 0 0
0 0 0
0 0 0
0 0 0
0 0 0
0 0 0
0 0 0
0 0 0
0 0 0
0 0 0
0 0 0
0 0 0
0 0 0
0 0 0
0 0 0
0 0 0
0 0 0
0 0 0
0 0 0
0 0 0
0 0 0
0 0 0
0 0 0
0 0 0
0 0 0
0 0 0
0 0 0
0 0 0
0 0 0
0 0 0
0 0 0
0 0 0
0 0 0
0 0 0
0 0 0
0 0 0
0 0 0
0 0 0
0 0 0
0 0 0
0 0 0
0 0 0
0 0 0
0 0 0
0 0 0
0 0 0
0 0 0
0 0 0
0 0 0
0 0 0
0 0 0
0 0 0
0 0 0
0 0 0
0 0 0
0 0 0
0 0 0
0 0 0
0 0 0
0 0 0
0 0 0
0 0 0
0 0 0
0 0 0
0 0 0
0 0 0
0 0 0
0 0 0
0 0 0
0 0 0
0 0 0
0 0 0
0 0 0
0 0 0
0 0 0
0 0 0
0 0 0
0 0 0
0 0 0
0 0 0
0 0 0
0 0 0
0 0 0
0 0 0
0 0 0
0 0 0
0 0 0
0 0 0
0 0 0
0 0 0
0 0 0
0 0 0
0 0 0
0 0 0
0 0 0
0 0 0
0 0 0
0 0 0
0 0 0
0 0 0
0 0 0
0 0 0
0 0 0
0 0 0
0 0 0
0 0 0
0 0 0
0 0 0
0 0 0
0 0 0
0 0 0
0 0 0
0 0 0
0 0 0
0 0 0
0 0 0
0 0 0
0 0 0
0 0 0
0 0 0
0 0 0
0 0 0
0 0 0
0 0 0
0 0 0
0 0 0
0 0 0
0 0 0
0 0 0
0 0 0
0 0 0
0 0 0
0 0 0
0 0 0
0 0 0
0 0 0
0 0 0
0 0 0
0 0 0
0 0 0
0 0 0
0 0 0
0 0 0
0 0 0
0 0 0
0 0 0
0 0 0
0 0 0
0 0 0
0 0 0
0 0 0
0 0 0
0 0 0
0 0 0
0 0 0
0 0 0
0 0 0
0 0 0
0 0 0
0 0 0
0 0 0
0 0 0
0 0 0
0 0 0
0 0 0
0 0 0
0 0 0
0 0 0
0 0 0
0 0 0
0 0 0
0 0 0
0 0 0
0 0 0
0 0 0
0 0 0
0 0 0
0 0 0
0 0 0
0 0 0
0 0 0
0 0 0
0 0 0
0 0 0
0 0 0
0 0 0
0 0 0
0 0 0
0 0 0
0 0 0
0 0 0
0 0 0
0 0 0
0 0 0
0 0 0
0 0 0
0 0 0
0 0 0
0 0 0
0 0 0
0 0 0
0 0 0
0 0 0
0 0 0
0 0 0
0 0 0
0 0 0
0 0 0
0 0 0
0 0 0
0 0 0
0 0 0
0 0 0
0 0 0
0 0 0
0 0 0
0 0 0
0 0 0
0 0 0
0 0 0
0 0 0
0 0 0
0 0 0
0 0 0
0 0 0
0 0 0
0 0 0
0 0 0
0 0 0
0 0 0
0 0 0
0 0 0
0 0 0
0 0 0
0 0 0
0 0 0
0 0 0
0 0 0
0 0 0
0 0 0
0 0 0
0 0 0
0 0 0
0 0 0
0 0 0
0 0 0
0 0 0
0 0 0
0 0 0
0 0 0
0 0 0
0 0 0
0 0 0
0 0 0
0 0 0
0 0 0
0 0 0
0 0 0
0 0 0
0 0 0
0 0 0
0 0 0
0 0 0
0 0 0
0 0 0
0 0 0
0 0 0
0 0 0
0 0 0
0 0 0
0 0 0
0 0 0
0 0 0
0 0 0
0 0 0
0 0 0
0 0 0
0 0 0
0 0 0
0 0 0
0 0 0
0 0 0
0 0 0
0 0 0
0 0 0
0 0 0
0 0 0
0 0 0
0 0 0
0 0 0
0 0 0
0 0 0
0 0 0
0 0 0
0 0 0
0 0 0
0 0 0
0 0 0
0 0 0
0 0 0
0 0 0
0 0 0
0 0 0
0 0 0
0 0 0
0 0 0
0 0 0
0 0 0
0 0 0
0 0 0
0 0 0
0 0 0
0 0 0
0 0 0
0 0 0
0 0 0
0 0 0
0 0 0
0 0 0
0 0 0
0 0 0
0 0 0
0 0 0
0 0 0
0 0 0
0 0 0
0 0 0
0 0 0
0 0 0
0 0 0
0 0 0
0 0 0
0 0 0
0 0 0
0 0 0
0 0 0
0 0 0
0 0 0
0 0 0
0 0 0
0 0 0
0 0 0
0 0 0
0 0 0
0 0 0
0 0 0
0 0 0
0 0 0
0 0 0
0 0 0
0 0 0
0 0 0
0 0 0
0 0 0
0 0 0
0 0 0
0 0 0
0 0 0
0 0 0
0 0 0
0 0 0
0 0 0
0 0 0
0 0 0
0 0 0
0 0 0
0 0 0
0 0 0
0 0 0
0 0 0
0 0 0
0 0 0
0 0 0
0 0 0
-0.00149286 0.00257476 -0.0440062
-0.0015683 0.00267 -0.0441938
-0.00218756 0.00271019 -0.0444493
-0.002806 0.00275082 -0.0447034
-0.00342258 0.00279193 -0.0449558
-0.00403606 0.0028335 -0.0452058
-0.00464485 0.00287546 -0.045453
-0.000994548 0.00272396 -0.0441236
-0.00159183 0.0027643 -0.0443796
-0.00218853 0.0028051 -0.0446345
-0.00278369 0.00284637 -0.0448877
-0.0033761 0.00288811 -0.0451388
-0.00396428 0.00293029 -0.0453872
-0.000413576 0.00277615 -0.0440519
-0.000988653 0.00281654 -0.0443084
-0.00156336 0.0028574 -0.044564
-0.00213681 0.00289875 -0.044818
-0.00270786 0.00294058 -0.0450702
0.00017372 0.0028265 -0.0439788
-0.000378955 0.00286683 -0.0442358
-0.000931459 0.00290765 -0.0444919
-0.00148295 0.00294898 -0.0447469
-0.00203239 0.00299081 -0.0450002
0.000766414 0.00287491 -0.0439042
0.000236287 0.00291507 -0.0441617
-0.000293836 0.00295575 -0.0444185
-0.000823183 0.00299696 -0.0446743
-0.00135079 0.00303869 -0.0449286
0.00136354 0.00292132 -0.0438282
0.00085606 0.00296119 -0.0440862
0.000348443 0.00300161 -0.0443436
-0.000158603 0.00304258 -0.0446003
0.0019641 0.00296564 -0.043751
0.00147931 0.0030051 -0.0440094
0.000994276 0.00304514 -0.0442675
0.000509638 0.00308576 -0.044525
0.0030284 0.00296948 -0.0434139
0.00256706 0.00300779 -0.0436725
0.00210495 0.00304671 -0.0439313
0.00164251 0.00308625 -0.04419
0.00118034 0.00312638 -0.0444484
0.0036101 0.0030101 -0.043334
0.00317135 0.00304771 -0.0435929
0.00273183 0.00308595 -0.0438521
0.00229196 0.00312484 -0.0441114
0.00584443 0.00290827 -0.0422247
0.00543394 0.00294233 -0.0424805
0.00502147 0.00297706 -0.0427372
0.00460748 0.00301246 -0.0429947
0.00419218 0.00304855 -0.0432531
0.00377585 0.00308531 -0.0435121
0.00335879 0.00312273 -0.0437717
0.00294139 0.00316083 -0.0440316
0.0063385 0.00294904 -0.042143
0.00594953 0.00298199 -0.0423984
0.00555892 0.00301552 -0.0426551
0.00516679 0.00304978 -0.0429129
0.0047736 0.00308476 -0.0431711
0.00437942 0.00312053 -0.0434304
0.00572476 0.00308486 -0.0428301
0.00535309 0.00311862 -0.0430888
0.00498085 0.00315341 -0.043348
-0.00126693 -4.5131e-05 -0.0421266
-0.0013403 -9.67695e-05 -0.0423861
-0.00195803 -0.000163671 -0.0426509
-0.00257495 -0.000229097 -0.0429179
-0.00318999 -0.00029266 -0.0431871
-0.00380185 -0.000353917 -0.043459
-0.00440901 -0.000412473 -0.0437338
-0.000765949 -7.88198e-05 -0.0423814
-0.00136163 -0.000146565 -0.0426462
-0.00195673 -0.000212861 -0.0429132
-0.00255024 -0.000277339 -0.0431824
-0.00314097 -0.000339585 -0.0434542
-0.00372747 -0.000399188 -0.0437289
-0.00018439 -5.83143e-05 -0.0423755
-0.000757788 -0.000126783 -0.0426404
-0.00133081 -0.000193849 -0.0429074
-0.00190253 -0.000259156 -0.0431766
-0.00247184 -0.000322305 -0.0434484
0.000403483 -3.51688e-05 -0.0423684
-0.00014744 -0.000104234 -0.0426333
-0.000698172 -0.00017196 -0.0429003
-0.00124787 -0.000237993 -0.0431696
-0.00179549 -0.000301946 -0.0434414
0.000996742 -9.29848e-06 -0.0423599
0.000468441 -7.88252e-05 -0.0426249
-5.98304e-05 -0.000147085 -0.042892
-0.000587298 -0.000213731 -0.0431614
-0.00111301 -0.000278375 -0.0434332
0.00159442 1.93828e-05 -0.04235
0.00108884 -5.0459e-05 -0.0426151
0.000583157 -0.000119116 -0.0428823
7.80714e-05 -0.000186246 -0.0431517
0.00219552 5.09607e-05 -0.0423384
0.00171271 -1.90375e-05 -0.0426037
0.00122969 -8.79434e-05 -0.042871
0.000747093 -0.000155416 -0.0431406
0.00325833 0.00015621 -0.0420618
0.00279901 8.55208e-05 -0.0423252
0.00233895 1.55369e-05 -0.0425906
0.00187861 -5.34569e-05 -0.0428582
0.00141857 -0.000121117 -0.0431279
0.00384048 0.000193533 -0.0420465
0.00340381 0.000123146 -0.0423101
0.00296643 5.33605e-05 -0.0425757
0.00252874 -1.55463e-05 -0.0428435
0.0060671 0.000514885 -0.0409938
0.00565859 0.000444624 -0.0412499
0.00524817 0.000374261 -0.0415078
0.00483623 0.000303961 -0.0417675
0.00442301 0.000233801 -0.0420292
0.00400882 0.000163916 -0.042293
0.00359398 9.45243e-05 -0.0425589
0.00317884 2.58995e-05 -0.042827
0.00656152 0.000554734 -0.0409741
0.00617454 0.000485346 -0.0412302
0.00578595 0.00041586 -0.0414882
0.00539598 0.000346427 -0.041748
0.00500486 0.000277079 -0.0420098
0.00461288 0.000207905 -0.0422738
0.00422038 0.000139113 -0.04254
0.00382764 7.09816e-05 -0.0428084
0.00705565 0.000596758 -0.0409518
0.0066898 0.000528541 -0.041208
0.00632273 0.000460294 -0.0414661
0.00595443 0.000391991 -0.041726
0.00558484 0.000323503 -0.0419883
0.00521476 0.000255121 -0.0422527
0.00484438 0.000187237 -0.0425192
0.00447379 0.00011992 -0.0427878
-0.00148548 0.0024621 -0.0439271
-0.00156078 0.00255089 -0.0441177
-0.00218012 0.00258639 -0.0443734
-0.00279866 0.00262238 -0.044628
-0.00341537 0.0026589 -0.0448809
-0.004029 0.00269594 -0.0451316
-0.00463797 0.00273347 -0.0453797
-0.000986791 0.00260323 -0.0440504
-0.00158414 0.00263883 -0.0443066
-0.00218093 0.00267492 -0.0445618
-0.00277619 0.00271154 -0.0448156
-0.00336873 0.00274869 -0.0450674
-0.00395708 0.00278637 -0.0453167
-0.000405577 0.00265399 -0.0439816
-0.000980699 0.00268958 -0.0442383
-0.00155548 0.00272569 -0.0444942
-0.00212901 0.00276233 -0.0447487
-0.00270017 0.00279952 -0.0450016
0.00018197 0.00270308 -0.0439114
-0.000370733 0.00273858 -0.0441686
-0.000923282 0.00277461 -0.044425
-0.00147484 0.00281118 -0.0446804
-0.00202438 0.00284832 -0.0449343
0.00077492 0.00275044 -0.0438397
0.000244786 0.00278575 -0.0440974
-0.000285363 0.0028216 -0.0443545
-0.000814755 0.00285801 -0.0446107
-0.00134244 0.00289501 -0.0448656
0.00137231 0.00279599 -0.0437667
0.000864842 0.002831 -0.0440248
0.000357222 0.00286657 -0.0442825
-0.000149848 0.00290272 -0.0445396
0.00197314 0.00283967 -0.0436923
0.00148838 0.00287427 -0.0439509
0.00100337 0.00290945 -0.0442093
0.000518728 0.00294523 -0.0444671
0.00303764 0.00284795 -0.043358
0.00257637 0.00288141 -0.0436168
0.00211431 0.00291547 -0.0438757
0.00165193 0.00295015 -0.0441347
0.00118977 0.00298544 -0.0443934
0.00361959 0.00288835 -0.043281
0.00318094 0.00292113 -0.04354
0.0027415 0.00295454 -0.0437994
0.0023017 0.00298859 -0.044059
0.00585364 0.00280527 -0.0421744
0.00544331 0.00283471 -0.0424302
0.00503097 0.00286476 -0.0426869
0.00461711 0.00289545 -0.0429445
0.00420194 0.0029268 -0.0432029
0.00378572 0.00295878 -0.0434621
0.00336877 0.0029914 -0.0437219
0.00295146 0.00302469 -0.043982
0.00634791 0.00284595 -0.0420955
0.00595912 0.00287435 -0.0423509
0.00556866 0.00290329 -0.0426077
0.00517668 0.00293292 -0.0428655
0.00478362 0.00296323 -0.0431238
0.00438958 0.00299428 -0.0433832
0.00573489 0.00296837 -0.0427854
0.00536339 0.00299752 -0.0430443
0.00499131 0.00302767 -0.0433036
-0.00147073 0.00223929 -0.0437696
-0.0014781 0.00235027 -0.0438484
-0.00154574 0.00231547 -0.0439662
-0.00155325 0.0024327 -0.044042
-0.0021652 0.0023418 -0.0442226
-0.00217265 0.00246358 -0.0442981
-0.00278389 0.00236869 -0.0444779
-0.00279127 0.00249499 -0.044553
-0.00340079 0.00239623 -0.044732
-0.00340808 0.00252699 -0.0448065
-0.00401465 0.00242446 -0.0449843
-0.00402184 0.00255961 -0.0450581
-0.0046239 0.00245335 -0.0452344
-0.00463096 0.00259279 -0.0453072
-0.000971343 0.00236468 -0.0439046
-0.000979044 0.00248345 -0.0439775
-0.00156878 0.00239099 -0.0441614
-0.00157644 0.00251437 -0.0442341
-0.00216568 0.00241789 -0.0444173
-0.00217329 0.00254583 -0.0444897
-0.0027611 0.00244542 -0.0446722
-0.00276864 0.00257787 -0.044744
-0.00335385 0.00247364 -0.0449254
-0.00336129 0.00261053 -0.0449965
-0.00394245 0.00250255 -0.0451766
-0.00394977 0.0026438 -0.0452468
-0.000389706 0.00241265 -0.0438415
-0.000397611 0.00253278 -0.0439116
-0.000964882 0.00243889 -0.0440987
-0.000972764 0.00256366 -0.0441686
-0.00153975 0.00246571 -0.0443553
-0.00154759 0.00259509 -0.0444248
-0.0021134 0.00249317 -0.0446109
-0.00212118 0.00262711 -0.0446799
-0.00268473 0.00252132 -0.044865
-0.00269244 0.00265974 -0.0449334
0.000198274 0.00245934 -0.0437769
0.000190161 0.00258064 -0.0438442
-0.000354448 0.00248543 -0.0440346
-0.000362553 0.0026114 -0.0441017
-0.000907049 0.0025121 -0.0442918
-0.000915132 0.00264271 -0.0443585
-0.0014587 0.00253942 -0.0445481
-0.00146674 0.00267462 -0.0446144
-0.00200836 0.00256743 -0.0448032
-0.00201635 0.00270716 -0.0448689
0.000791669 0.00250469 -0.043711
0.000783343 0.00262696 -0.0437755
0.000261551 0.00253054 -0.0439691
0.000253215 0.0026575 -0.0440333
-0.000268613 0.00255698 -0.0442268
-0.000276944 0.00268861 -0.0442908
-0.000798056 0.00258408 -0.0444839
-0.000806366 0.00272033 -0.0445475
-0.00132583 0.00261188 -0.04474
-0.0013341 0.00275268 -0.044803
0.00138952 0.00254863 -0.0436437
0.00138097 0.00267168 -0.0437053
0.000882099 0.00257416 -0.0439022
0.000873527 0.00270191 -0.0439636
0.000374503 0.0026003 -0.0441605
0.000365917 0.00273272 -0.0442217
-0.000132578 0.0026271 -0.0444184
-0.000141161 0.00276415 -0.0444792
0.00199081 0.00259113 -0.043575
0.00198204 0.00271474 -0.0436338
0.00150614 0.00261625 -0.043834
0.00149733 0.00274455 -0.0438926
0.00102119 0.00264199 -0.0440929
0.00101235 0.00277497 -0.0441513
0.000536584 0.0026684 -0.0443516
0.00052772 0.00280602 -0.0444095
0.00305564 0.00260809 -0.0432461
0.00304672 0.00272737 -0.0433022
0.00259452 0.00263211 -0.0435051
0.00258553 0.00275607 -0.0435611
0.00213259 0.00265673 -0.0437645
0.00212353 0.00278536 -0.0438203
0.00167031 0.00268198 -0.044024
0.00166119 0.00281528 -0.0440796
0.00120823 0.00270791 -0.0442834
0.00119908 0.00284584 -0.0443386
0.00363803 0.00264811 -0.0431747
0.0036289 0.00276755 -0.0432281
0.00319957 0.00267153 -0.043434
0.00319034 0.00279561 -0.0434872
0.0027603 0.00269555 -0.0436938
0.00275099 0.00282427 -0.0437468
0.00232065 0.00272022 -0.0439539
0.00231127 0.00285358 -0.0440066
0.00587149 0.00260164 -0.0420733
0.00586265 0.00270293 -0.042124
0.00546143 0.00262205 -0.042329
0.00545245 0.00272781 -0.0423798
0.00504936 0.00264297 -0.0425858
0.00504026 0.00275325 -0.0426365
0.00463576 0.00266448 -0.0428435
0.00462653 0.00277931 -0.0428942
0.00422084 0.00268661 -0.0431022
0.00421148 0.002806 -0.0431528
0.00380484 0.00270933 -0.0433617
0.00379538 0.0028333 -0.0434121
0.00338811 0.00273265 -0.0436218
0.00337854 0.00286122 -0.0436721
0.00297099 0.00275663 -0.0438825
0.00296133 0.0028898 -0.0439325
0.00636616 0.00264213 -0.042
0.00635708 0.00274351 -0.0420478
0.00597765 0.00266156 -0.0422555
0.00596847 0.00276741 -0.0423032
0.00558741 0.00268155 -0.0425122
0.00557816 0.00279183 -0.04256
0.00519579 0.00270221 -0.0427698
0.00518634 0.00281693 -0.0428179
0.00480297 0.00272355 -0.0430285
0.0047934 0.00284266 -0.0430764
0.0044092 0.00274547 -0.0432882
0.0043995 0.0028691 -0.0433359
0.00401478 0.00276798 -0.0435488
0.00400495 0.00289615 -0.0435963
0.00362005 0.00279115 -0.04381
0.00686059 0.00268142 -0.0419255
0.00685144 0.00278263 -0.0419709
0.00649326 0.00269983 -0.0421807
0.00648395 0.00280535 -0.0422262
0.00612449 0.00271883 -0.0424374
0.00611501 0.00282869 -0.0424828
0.00575441 0.00273852 -0.0426952
0.00574476 0.00285273 -0.0427405
0.00538322 0.00275875 -0.0429543
0.00537342 0.00287738 -0.0429995
0.00501144 0.00277994 -0.043214
0.00500149 0.002903 -0.043259
0.00463912 0.00280163 -0.0434747
0.00462902 0.00292915 -0.0435196
0.00426658 0.00282386 -0.0437363
-0.00146259 0.00212909 -0.0436909
-0.00146259 0.00212901 -0.0436909
-0.00153747 0.00219909 -0.0438905
-0.00153747 0.002199 -0.0438905
-0.00215697 0.0022209 -0.0441472
-0.00215697 0.0022208 -0.0441472
-0.00277571 0.00224332 -0.0444031
-0.00277571 0.00224321 -0.044403
-0.00339268 0.00226644 -0.0446578
-0.00339268 0.00226633 -0.0446578
-0.00400663 0.00229033 -0.044911
-0.00400664 0.00229022 -0.0449109
-0.004616 0.00231498 -0.0451622
-0.004616 0.00231485 -0.0451621
-0.000962889 0.00224679 -0.0438317
-0.00096289 0.0022467 -0.0438316
-0.00156035 0.00226855 -0.0440888