# vtk DataFile Version 3.0
Generated by Jean Bénézech
ASCII
DATASET UNSTRUCTURED_GRID
POINTS 3944 double
56.19 117.6 312
56.29 117.665 310
56.39 117.73 308
56.49 117.795 306
56.59 117.861 304
56.69 117.926 302
56.79 117.991 300
56.89 118.056 298
56.99 118.121 296
56.09 116.337 314
57.09 116.97 294
55.99 115.077 316
57.09 115.753 294
55.89 113.821 318
57.09 114.537 294
55.89 112.627 318
57.09 113.32 294
55.89 111.432 318
57.09 112.104 294
55.89 110.238 318
57.09 110.887 294
55.89 109.043 318
57.09 109.671 294
55.89 107.849 318
56.99 108.404 296
55.89 106.654 318
56.89 107.14 298
55.89 105.46 318
56.59 105.787 304
56.69 105.834 302
56.79 105.881 300
55.99 104.31 316
56.09 104.355 314
56.19 104.4 312
56.29 104.445 310
56.39 104.49 308
56.49 104.535 306
55.94 117.6 312
56.04 117.665 310
56.14 117.73 308
56.24 117.795 306
56.34 117.861 304
56.44 117.926 302
56.54 117.991 300
56.64 118.056 298
56.74 118.121 296
55.84 116.337 314
56.84 116.97 294
55.74 115.077 316
56.84 115.753 294
55.64 113.821 318
56.84 114.537 294
55.64 112.627 318
56.84 113.32 294
55.64 111.432 318
56.84 112.104 294
55.64 110.238 318
56.84 110.887 294
55.64 109.043 318
56.84 109.671 294
55.64 107.849 318
56.74 108.404 296
55.64 106.654 318
56.64 107.14 298
55.64 105.46 318
56.34 105.787 304
56.44 105.834 302
56.54 105.881 300
55.74 104.31 316
55.84 104.355 314
55.94 104.4 312
56.04 104.445 310
56.14 104.49 308
56.24 104.535 306
55.69 117.6 312
55.79 117.665 310
55.89 117.73 308
55.99 117.795 306
56.09 117.861 304
56.19 117.926 302
56.29 117.991 300
56.39 118.056 298
56.49 118.121 296
55.59 116.337 314
56.59 116.97 294
55.49 115.077 316
56.59 115.753 294
55.39 113.821 318
56.59 114.537 294
55.39 112.627 318
56.59 113.32 294
55.39 111.432 318
56.59 112.104 294
55.39 110.238 318
56.59 110.887 294
55.39 109.043 318
56.59 109.671 294
55.39 107.849 318
56.49 108.404 296
55.39 106.654 318
56.39 107.14 298
55.39 105.46 318
56.09 105.787 304
56.19 105.834 302
56.29 105.881 300
55.49 104.31 316
55.59 104.355 314
55.69 104.4 312
55.79 104.445 310
55.89 104.49 308
55.99 104.535 306
55.68 117.6 312
55.78 117.665 310
55.88 117.73 308
55.98 117.795 306
56.08 117.861 304
56.18 117.926 302
56.28 117.991 300
56.38 118.056 298
56.48 118.121 296
55.58 116.337 314
56.58 116.97 294
55.48 115.077 316
56.58 115.753 294
55.38 113.821 318
56.58 114.537 294
55.38 112.627 318
56.58 113.32 294
55.38 111.432 318
56.58 112.104 294
55.38 110.238 318
56.58 110.887 294
55.38 109.043 318
56.58 109.671 294
55.38 107.849 318
56.48 108.404 296
55.38 106.654 318
56.38 107.14 298
55.38 105.46 318
56.08 105.787 304
56.18 105.834 302
56.28 105.881 300
55.48 104.31 316
55.58 104.355 314
55.68 104.4 312
55.78 104.445 310
55.88 104.49 308
55.98 104.535 306
55.43 117.6 312
55.53 117.665 310
55.63 117.73 308
55.73 117.795 306
55.83 117.861 304
55.93 117.926 302
56.03 117.991 300
56.13 118.056 298
56.23 118.121 296
55.33 116.337 314
56.33 116.97 294
55.23 115.077 316
56.33 115.753 294
55.13 113.821 318
56.33 114.537 294
55.13 112.627 318
56.33 113.32 294
55.13 111.432 318
56.33 112.104 294
55.13 110.238 318
56.33 110.887 294
55.13 109.043 318
56.33 109.671 294
55.13 107.849 318
56.23 108.404 296
55.13 106.654 318
56.13 107.14 298
55.13 105.46 318
55.83 105.787 304
55.93 105.834 302
56.03 105.881 300
55.23 104.31 316
55.33 104.355 314
55.43 104.4 312
55.53 104.445 310
55.63 104.49 308
55.73 104.535 306
55.42 117.6 312
55.52 117.665 310
55.62 117.73 308
55.72 117.795 306
55.82 117.861 304
55.92 117.926 302
56.02 117.991 300
56.12 118.056 298
56.22 118.121 296
55.32 116.337 314
56.32 116.97 294
55.22 115.077 316
56.32 115.753 294
55.12 113.821 318
56.32 114.537 294
55.12 112.627 318
56.32 113.32 294
55.12 111.432 318
56.32 112.104 294
55.12 110.238 318
56.32 110.887 294
55.12 109.043 318
56.32 109.671 294
55.12 107.849 318
56.22 108.404 296
55.12 106.654 318
56.12 107.14 298
55.12 105.46 318
55.82 105.787 304
55.92 105.834 302
56.02 105.881 300
55.22 104.31 316
55.32 104.355 314
55.42 104.4 312
55.52 104.445 310
55.62 104.49 308
55.72 104.535 306
55.17 117.6 312
55.27 117.665 310
55.37 117.73 308
55.47 117.795 306
55.57 117.861 304
55.67 117.926 302
55.77 117.991 300
55.87 118.056 298
55.97 118.121 296
55.07 116.337 314
56.07 116.97 294
54.97 115.077 316
56.07 115.753 294
54.87 113.821 318
56.07 114.537 294
54.87 112.627 318
56.07 113.32 294
54.87 111.432 318
56.07 112.104 294
54.87 110.238 318
56.07 110.887 294
54.87 109.043 318
56.07 109.671 294
54.87 107.849 318
55.97 108.404 296
54.87 106.654 318
55.87 107.14 298
54.87 105.46 318
55.57 105.787 304
55.67 105.834 302
55.77 105.881 300
54.97 104.31 316
55.07 104.355 314
55.17 104.4 312
55.27 104.445 310
55.37 104.49 308
55.47 104.535 306
54.92 117.6 312
55.02 117.665 310
55.12 117.73 308
55.22 117.795 306
55.32 117.861 304
55.42 117.926 302
55.52 117.991 300
55.62 118.056 298
55.72 118.121 296
54.82 116.337 314
55.82 116.97 294
54.72 115.077 316
55.82 115.753 294
54.62 113.821 318
55.82 114.537 294
54.62 112.627 318
55.82 113.32 294
54.62 111.432 318
55.82 112.104 294
54.62 110.238 318
55.82 110.887 294
54.62 109.043 318
55.82 109.671 294
54.62 107.849 318
55.72 108.404 296
54.62 106.654 318
55.62 107.14 298
54.62 105.46 318
55.32 105.787 304
55.42 105.834 302
55.52 105.881 300
54.72 104.31 316
54.82 104.355 314
54.92 104.4 312
55.02 104.445 310
55.12 104.49 308
55.22 104.535 306
54.67 117.6 312
54.77 117.665 310
54.87 117.73 308
54.97 117.795 306
55.07 117.861 304
55.17 117.926 302
55.27 117.991 300
55.37 118.056 298
55.47 118.121 296
54.57 116.337 314
55.57 116.97 294
54.47 115.077 316
55.57 115.753 294
54.37 113.821 318
55.57 114.537 294
54.37 112.627 318
55.57 113.32 294
54.37 111.432 318
55.57 112.104 294
54.37 110.238 318
55.57 110.887 294
54.37 109.043 318
55.57 109.671 294
54.37 107.849 318
55.47 108.404 296
54.37 106.654 318
55.37 107.14 298
54.37 105.46 318
55.07 105.787 304
55.17 105.834 302
55.27 105.881 300
54.47 104.31 316
54.57 104.355 314
54.67 104.4 312
54.77 104.445 310
54.87 104.49 308
54.97 104.535 306
54.42 117.6 312
54.52 117.665 310
54.62 117.73 308
54.72 117.795 306
54.82 117.861 304
54.92 117.926 302
55.02 117.991 300
55.12 118.056 298
55.22 118.121 296
54.32 116.337 314
55.32 116.97 294
54.22 115.077 316
55.32 115.753 294
54.12 113.821 318
55.32 114.537 294
54.12 112.627 318
55.32 113.32 294
54.12 111.432 318
55.32 112.104 294
54.12 110.238 318
55.32 110.887 294
54.12 109.043 318
55.32 109.671 294
54.12 107.849 318
55.22 108.404 296
54.12 106.654 318
55.12 107.14 298
54.12 105.46 318
54.82 105.787 304
54.92 105.834 302
55.02 105.881 300
54.22 104.31 316
54.32 104.355 314
54.42 104.4 312
54.52 104.445 310
54.62 104.49 308
54.72 104.535 306
54.17 117.6 312
54.27 117.665 310
54.37 117.73 308
54.47 117.795 306
54.57 117.861 304
54.67 117.926 302
54.77 117.991 300
54.87 118.056 298
54.97 118.121 296
54.07 116.337 314
55.07 116.97 294
53.97 115.077 316
55.07 115.753 294
53.87 113.821 318
55.07 114.537 294
53.87 112.627 318
55.07 113.32 294
53.87 111.432 318
55.07 112.104 294
53.87 110.238 318
55.07 110.887 294
53.87 109.043 318
55.07 109.671 294
53.87 107.849 318
54.97 108.404 296
53.87 106.654 318
54.87 107.14 298
53.87 105.46 318
54.57 105.787 304
54.67 105.834 302
54.77 105.881 300
53.97 104.31 316
54.07 104.355 314
54.17 104.4 312
54.27 104.445 310
54.37 104.49 308
54.47 104.535 306
53.92 117.6 312
54.02 117.665 310
54.12 117.73 308
54.22 117.795 306
54.32 117.861 304
54.42 117.926 302
54.52 117.991 300
54.62 118.056 298
54.72 118.121 296
53.82 116.337 314
54.82 116.97 294
53.72 115.077 316
54.82 115.753 294
53.62 113.821 318
54.82 114.537 294
53.62 112.627 318
54.82 113.32 294
53.62 111.432 318
54.82 112.104 294
53.62 110.238 318
54.82 110.887 294
53.62 109.043 318
54.82 109.671 294
53.62 107.849 318
54.72 108.404 296
53.62 106.654 318
54.62 107.14 298
53.62 105.46 318
54.32 105.787 304
54.42 105.834 302
54.52 105.881 300
53.72 104.31 316
53.82 104.355 314
53.92 104.4 312
54.02 104.445 310
54.12 104.49 308
54.22 104.535 306
53.67 117.6 312
53.77 117.665 310
53.87 117.73 308
53.97 117.795 306
54.07 117.861 304
54.17 117.926 302
54.27 117.991 300
54.37 118.056 298
54.47 118.121 296
53.57 116.337 314
54.57 116.97 294
53.47 115.077 316
54.57 115.753 294
53.37 113.821 318
54.57 114.537 294
53.37 112.627 318
54.57 113.32 294
53.37 111.432 318
54.57 112.104 294
53.37 110.238 318
54.57 110.887 294
53.37 109.043 318
54.57 109.671 294
53.37 107.849 318
54.47 108.404 296
53.37 106.654 318
54.37 107.14 298
53.37 105.46 318
54.07 105.787 304
54.17 105.834 302
54.27 105.881 300
53.47 104.31 316
53.57 104.355 314
53.67 104.4 312
53.77 104.445 310
53.87 104.49 308
53.97 104.535 306
53.66 117.6 312
53.76 117.665 310
53.86 117.73 308
53.96 117.795 306
54.06 117.861 304
54.16 117.926 302
54.26 117.991 300
54.36 118.056 298
54.46 118.121 296
53.56 116.337 314
54.56 116.97 294
53.46 115.077 316
54.56 115.753 294
53.36 113.821 318
54.56 114.537 294
53.36 112.627 318
54.56 113.32 294
53.36 111.432 318
54.56 112.104 294
53.36 110.238 318
54.56 110.887 294
53.36 109.043 318
54.56 109.671 294
53.36 107.849 318
54.46 108.404 296
53.36 106.654 318
54.36 107.14 298
53.36 105.46 318
54.06 105.787 304
54.16 105.834 302
54.26 105.881 300
53.46 104.31 316
53.56 104.355 314
53.66 104.4 312
53.76 104.445 310
53.86 104.49 308
53.96 104.535 306
53.41 117.6 312
53.51 117.665 310
53.61 117.73 308
53.71 117.795 306
53.81 117.861 304
53.91 117.926 302
54.01 117.991 300
54.11 118.056 298
54.21 118.121 296
53.31 116.337 314
54.31 116.97 294
53.21 115.077 316
54.31 115.753 294
53.11 113.821 318
54.31 114.537 294
53.11 112.627 318
54.31 113.32 294
53.11 111.432 318
54.31 112.104 294
53.11 110.238 318
54.31 110.887 294
53.11 109.043 318
54.31 109.671 294
53.11 107.849 318
54.21 108.404 296
53.11 106.654 318
54.11 107.14 298
53.11 105.46 318
53.81 105.787 304
53.91 105.834 302
54.01 105.881 300
53.21 104.31 316
53.31 104.355 314
53.41 104.4 312
53.51 104.445 310
53.61 104.49 308
53.71 104.535 306
53.16 117.6 312
53.26 117.665 310
53.36 117.73 308
53.46 117.795 306
[...]
POINT_DATA 3944
SCALARS DISPLACEMENT double 3
LOOKUP_TABLE default
0 0 0
0 0 0
0 0 0
0 0 0
0 0 0
0 0 0
0 0 0
0 0 0
0 0 0
0 0 0
0 0 0
0 0 0
0 0 0
0 0 0
0 0 0
0 0 0
0 0 0
0 0 0
0 0 0
0 0 0
0 0 0
0 0 0
0 0 0
0 0 0
0 0 0
0 0 0
0 0 0
0 0 0
0 0 0
0 0 0
0 0 0
0 0 0
0 0 0
0 0 0
0 0 0
0 0 0
0 0 0
0 0 0
0 0 0
0 0 0
0 0 0
0 0 0
0 0 0
0 0 0
0 0 0
0 0 0
0 0 0
0 0 0
0 0 0
0 0 0
0 0 0
0 0 0
0 0 0
0 0 0
0 0 0
0 0 0
0 0 0
0 0 0
0 0 0
0 0 0
0 0 0
0 0 0
0 0 0
0 0 0
0 0 0
0 0 0
0 0 0
0 0 0
0 0 0
0 0 0
0 0 0
0 0 0
0 0 0
0 0 0
0 0 0
0 0 0
0 0 0
0 0 0
0 0 0
0 0 0
0 0 0
0 0 0
0 0 0
0 0 0
0 0 0
0 0 0
0 0 0
0 0 0
0 0 0
0 0 0
0 0 0
0 0 0
0 0 0
0 0 0
0 0 0
0 0 0
0 0 0
0 0 0
0 0 0
0 0 0
0 0 0
0 0 0
0 0 0
0 0 0
0 0 0
0 0 0
0 0 0
0 0 0
0 0 0
0 0 0
0 0 0
0 0 0
0 0 0
0 0 0
0 0 0
0 0 0
0 0 0
0 0 0
0 0 0
0 0 0
0 0 0
0 0 0
0 0 0
0 0 0
0 0 0
0 0 0
0 0 0
0 0 0
0 0 0
0 0 0
0 0 0
0 0 0
0 0 0
0 0 0
0 0 0
0 0 0
0 0 0
0 0 0
0 0 0
0 0 0
0 0 0
0 0 0
0 0 0
0 0 0
0 0 0
0 0 0
0 0 0
0 0 0
0 0 0
0 0 0
0 0 0
0 0 0
0 0 0
0 0 0
0 0 0
0 0 0
0 0 0
0 0 0
0 0 0
0 0 0
0 0 0
0 0 0
0 0 0
0 0 0
0 0 0
0 0 0
0 0 0
0 0 0
0 0 0
0 0 0
0 0 0
0 0 0
0 0 0
0 0 0
0 0 0
0 0 0
0 0 0
0 0 0
0 0 0
0 0 0
0 0 0
0 0 0
0 0 0
0 0 0
0 0 0
0 0 0
0 0 0
0 0 0
0 0 0
0 0 0
0 0 0
0 0 0
0 0 0
0 0 0
0 0 0
0 0 0
0 0 0
0 0 0
0 0 0
0 0 0
0 0 0
0 0 0
0 0 0
0 0 0
0 0 0
0 0 0
0 0 0
0 0 0
0 0 0
0 0 0
0 0 0
0 0 0
0 0 0
0 0 0
0 0 0
0 0 0
0 0 0
0 0 0
0 0 0
0 0 0
0 0 0
0 0 0
0 0 0
0 0 0
0 0 0
0 0 0
0 0 0
0 0 0
0 0 0
0 0 0
0 0 0
0 0 0
0 0 0
0 0 0
0 0 0
0 0 0
0 0 0
0 0 0
0 0 0
0 0 0
0 0 0
0 0 0
0 0 0
0 0 0
0 0 0
0 0 0
0 0 0
0 0 0
0 0 0
0 0 0
0 0 0
0 0 0
0 0 0
0 0 0
0 0 0
0 0 0
0 0 0
0 0 0
0 0 0
0 0 0
0 0 0
0 0 0
0 0 0
0 0 0
0 0 0
0 0 0
0 0 0
0 0 0
0 0 0
0 0 0
0 0 0
0 0 0
0 0 0
0 0 0
0 0 0
0 0 0
0 0 0
0 0 0
0 0 0
0 0 0
0 0 0
0 0 0
0 0 0
0 0 0
0 0 0
0 0 0
0 0 0
0 0 0
0 0 0
0 0 0
0 0 0
0 0 0
0 0 0
0 0 0
0 0 0
0 0 0
0 0 0
0 0 0
0 0 0
0 0 0
0 0 0
0 0 0
0 0 0
0 0 0
0 0 0
0 0 0
0 0 0
0 0 0
0 0 0
0 0 0
0 0 0
0 0 0
0 0 0
0 0 0
0 0 0
0 0 0
0 0 0
0 0 0
0 0 0
0 0 0
0 0 0
0 0 0
0 0 0
0 0 0
0 0 0
0 0 0
0 0 0
0 0 0
0 0 0
0 0 0
0 0 0
0 0 0
0 0 0
0 0 0
0 0 0
0 0 0
0 0 0
0 0 0
0 0 0
0 0 0
0 0 0
0 0 0
0 0 0
0 0 0
0 0 0
0 0 0
0 0 0
0 0 0
0 0 0
0 0 0
0 0 0
0 0 0
0 0 0
0 0 0
0 0 0
0 0 0
0 0 0
0 0 0
0 0 0
0 0 0
0 0 0
0 0 0
0 0 0
0 0 0
0 0 0
0 0 0
0 0 0
0 0 0
0 0 0
0 0 0
0 0 0
0 0 0
0 0 0
0 0 0
0 0 0
0 0 0
0 0 0
0 0 0
0 0 0
0 0 0
0 0 0
0 0 0
0 0 0
0 0 0
0 0 0
0 0 0
0 0 0
0 0 0
0 0 0
0 0 0
0 0 0
0 0 0
0 0 0
0 0 0
0 0 0
0 0 0
0 0 0
0 0 0
0 0 0
0 0 0
0 0 0
0 0 0
0 0 0
0 0 0
0 0 0
0 0 0
0 0 0
0 0 0
0 0 0
0 0 0
0 0 0
0 0 0
0 0 0
0 0 0
0 0 0
0 0 0
0 0 0
0 0 0
0 0 0
0 0 0
0 0 0
0 0 0
0 0 0
0 0 0
0 0 0
0 0 0
0 0 0
0 0 0
0 0 0
0 0 0
0 0 0
0 0 0
0 0 0
0 0 0
0 0 0
0 0 0
0 0 0
0 0 0
0 0 0
0 0 0
0 0 0
0 0 0
0 0 0
0 0 0
0 0 0
0 0 0
0 0 0
0 0 0
0 0 0
0 0 0
0 0 0
0 0 0
0 0 0
0 0 0
0 0 0
0 0 0
0 0 0
0 0 0
0 0 0
0 0 0
0 0 0
0 0 0
0 0 0
0 0 0
0 0 0
0 0 0
0 0 0
0 0 0
0 0 0
0 0 0
0 0 0
0 0 0
0 0 0
0 0 0
0 0 0
0 0 0
0 0 0
0 0 0
0 0 0
0 0 0
0 0 0
0 0 0
0 0 0
0 0 0
0 0 0
0 0 0
0 0 0
0 0 0
0 0 0
0 0 0
0 0 0
0 0 0
0 0 0
0 0 0
0 0 0
0 0 0
0 0 0
0 0 0
0 0 0
0 0 0
0 0 0
0 0 0
0 0 0
0 0 0
0 0 0
0 0 0
0 0 0
0 0 0
0 0 0
0 0 0
0 0 0
0 0 0
0 0 0
0 0 0
0 0 0
0 0 0
0 0 0
0 0 0
0 0 0
0 0 0
0 0 0
0 0 0
0 0 0
0 0 0
0 0 0
0 0 0
0 0 0
0 0 0
0 0 0
0 0 0
0 0 0
0 0 0
0 0 0
0 0 0
0 0 0
0 0 0
0 0 0
0 0 0
0 0 0
0 0 0
0 0 0
0 0 0
0 0 0
0 0 0
0 0 0
0 0 0
0 0 0
0 0 0
0 0 0
0 0 0
0 0 0
0 0 0
0 0 0
0 0 0
0 0 0
0 0 0
0 0 0
0 0 0
0 0 0
0 0 0
0 0 0
0 0 0
0 0 0
0 0 0
0 0 0
0 0 0
0 0 0
0 0 0
0 0 0
0 0 0
0 0 0
0 0 0
0 0 0
0 0 0
0 0 0
0 0 0
0 0 0
0 0 0
0 0 0
0 0 0
0 0 0
0 0 0
0 0 0
0 0 0
0 0 0
0 0 0
0 0 0
0 0 0
0 0 0
0 0 0
0 0 0
0 0 0
0 0 0
0 0 0
0 0 0
0 0 0
0 0 0
0 0 0
0 0 0
0 0 0
0 0 0
0 0 0
0 0 0
0 0 0
0 0 0
0 0 0
0 0 0
0 0 0
0 0 0
0 0 0
0 0 0
0 0 0
0 0 0
0 0 0
0 0 0
0 0 0
0 0 0
0 0 0
0 0 0
0 0 0
0 0 0
0 0 0
0 0 0
0 0 0
0 0 0
0 0 0
0 0 0
0 0 0
0 0 0
0 0 0
0 0 0
0 0 0
0 0 0
0 0 0
0 0 0
0 0 0
0 0 0
0 0 0
0 0 0
0 0 0
0 0 0
0 0 0
0 0 0
0 0 0
0 0 0
0 0 0
0 0 0
0 0 0
0 0 0
0 0 0
0 0 0
0 0 0
0 0 0
0 0 0
0 0 0
0 0 0
0 0 0
0 0 0
0 0 0
0 0 0
0 0 0
0 0 0
0 0 0
0 0 0
0 0 0
0 0 0
0 0 0
0 0 0
0 0 0
0 0 0
0 0 0
0 0 0
0 0 0
0 0 0
0 0 0
0 0 0
0 0 0
0 0 0
0 0 0
0 0 0
0 0 0
0 0 0
0 0 0
0 0 0
0 0 0
0 0 0
0 0 0
0 0 0
0 0 0
0 0 0
0 0 0
0 0 0
0 0 0
0 0 0
0 0 0
0 0 0
0 0 0
0 0 0
0 0 0
0 0 0
0 0 0
0 0 0
0 0 0
0 0 0
0 0 0
0 0 0
0 0 0
0 0 0
0 0 0
0 0 0
0 0 0
0 0 0
0 0 0
0 0 0
0 0 0
0 0 0
0 0 0
0 0 0
0 0 0
0 0 0
0 0 0
0 0 0
0 0 0
0 0 0
0 0 0
0 0 0
0 0 0
0 0 0
0 0 0
0 0 0
0 0 0
0 0 0
0 0 0
0 0 0
0 0 0
0 0 0
0 0 0
0 0 0
0 0 0
0 0 0
0 0 0
0 0 0
0 0 0
0 0 0
0 0 0
0 0 0
0 0 0
0 0 0
0 0 0
0 0 0
0 0 0
0 0 0
0 0 0
0 0 0
0 0 0
0 0 0
0 0 0
0 0 0
0 0 0
0 0 0
0 0 0
0 0 0
0 0 0
0 0 0
0 0 0
0 0 0
0 0 0
0 0 0
0 0 0
0 0 0
0 0 0
0 0 0
0 0 0
0 0 0
0 0 0
0 0 0
0 0 0
0 0 0
0 0 0
0 0 0
0 0 0
0 0 0
0 0 0
0 0 0
0 0 0
0 0 0
0 0 0
0 0 0
0 0 0
0 0 0
0 0 0
0 0 0
0 0 0
0 0 0
0 0 0
0 0 0
0 0 0
0 0 0
0 0 0
0 0 0
0 0 0
0 0 0
0 0 0
0 0 0
0 0 0
0 0 0
0 0 0
0 0 0
0 0 0
0 0 0
0 0 0
0 0 0
0 0 0
0 0 0
0 0 0
0 0 0
0 0 0
0 0 0
0 0 0
0 0 0
0 0 0
0 0 0
0 0 0
0 0 0
0 0 0
0 0 0
0 0 0
0 0 0
0 0 0
0 0 0
0 0 0
0 0 0
0 0 0
0 0 0
0 0 0
0 0 0
0 0 0
0 0 0
0 0 0
0 0 0
0 0 0
0 0 0
0 0 0
0 0 0
0 0 0
0 0 0
0 0 0
0 0 0
0 0 0
0 0 0
0 0 0
0 0 0
0 0 0
0 0 0
0 0 0
0 0 0
0 0 0
0 0 0
0 0 0
0 0 0
0 0 0
0 0 0
0 0 0
0 0 0
0 0 0
0 0 0
0 0 0
0 0 0
0 0 0
0 0 0
0 0 0
0 0 0
0 0 0
0 0 0
0 0 0
0 0 0
0 0 0
0 0 0
0 0 0
0 0 0
0 0 0
0 0 0
0 0 0
0 0 0
0 0 0
0 0 0
0 0 0
0 0 0
0 0 0
0 0 0
0 0 0
0 0 0
0 0 0
0 0 0
0 0 0
0 0 0
0 0 0
0 0 0
0 0 0
0 0 0
0 0 0
0 0 0
0 0 0
0 0 0
0 0 0
0 0 0
0 0 0
0 0 0
0 0 0
0 0 0
0 0 0
0 0 0
0 0 0
0 0 0
0 0 0
0 0 0
0 0 0
0 0 0
0 0 0
0 0 0
0 0 0
0 0 0
0 0 0
0 0 0
0 0 0
0 0 0
0 0 0
0 0 0
0 0 0
0 0 0
0 0 0
0 0 0
0 0 0
0 0 0
0 0 0
0 0 0
0 0 0
0 0 0
0 0 0
0 0 0
0 0 0
0 0 0
0 0 0
0 0 0
0 0 0
0 0 0
0 0 0
0 0 0
0 0 0
0 0 0
0 0 0
0 0 0
0 0 0
0 0 0
0 0 0
0 0 0
0 0 0
0 0 0
0 0 0
0 0 0
0 0 0
0 0 0
0 0 0
0 0 0
0 0 0
0 0 0
0 0 0
0 0 0
0 0 0
0 0 0
0 0 0
0 0 0
0 0 0
0 0 0
0 0 0
0 0 0
0 0 0
0 0 0
0 0 0
0 0 0
0 0 0
0 0 0
0 0 0
0 0 0
0 0 0
0 0 0
0 0 0
0 0 0
0 0 0
0 0 0
0 0 0
0 0 0
0 0 0
0 0 0
0 0 0
0 0 0
0 0 0
0 0 0
0 0 0
0 0 0
0 0 0
0 0 0
0 0 0
0 0 0
0 0 0
0 0 0
0 0 0
0 0 0
0 0 0
0 0 0
0 0 0
0 0 0
0 0 0
0 0 0
0 0 0
0 0 0
0 0 0
0 0 0
0 0 0
0 0 0
0 0 0
0 0 0
0 0 0
0 0 0
0 0 0
0 0 0
0 0 0
0 0 0
0 0 0
0 0 0
0 0 0
0 0 0
0 0 0
0 0 0
0 0 0
0 0 0
0 0 0
0 0 0
0 0 0
0 0 0
0 0 0
0 0 0
0 0 0
0 0 0
0 0 0
0 0 0
0 0 0
0 0 0
0 0 0
0 0 0
0 0 0
0 0 0
0 0 0
0 0 0
0 0 0
0 0 0
0 0 0
0 0 0
0 0 0
0 0 0
0 0 0
0 0 0
0 0 0
0 0 0
0 0 0
0 0 0
0 0 0
0 0 0
0 0 0
0 0 0
0 0 0
0 0 0
0 0 0
-0.230923 0.0112871 -0.110822
-0.237261 0.0115261 -0.112474
-0.243595 0.0117672 -0.114116
-0.249918 0.0120105 -0.115747
-0.256225 0.0122558 -0.117364
-0.262505 0.0125032 -0.118966
-0.209666 0.0109893 -0.105469
-0.21586 0.0112277 -0.107138
-0.222064 0.0114684 -0.108802
-0.228273 0.0117113 -0.11046
-0.234484 0.0119565 -0.112112
-0.240691 0.0122039 -0.113754
-0.24689 0.0124535 -0.115386
-0.253072 0.0127052 -0.117005
-0.25923 0.0129591 -0.118609
-0.201272 0.0111498 -0.103431
-0.207322 0.0113914 -0.1051
-0.213385 0.0116353 -0.106766
-0.219458 0.0118816 -0.108429
-0.225536 0.0121303 -0.110086
-0.231617 0.0123813 -0.111737
-0.237695 0.0126345 -0.113379
-0.243764 0.01289 -0.115012
-0.249818 0.0131478 -0.116633
-0.25585 0.0134078 -0.118239
-0.193087 0.0112983 -0.101385
-0.198989 0.0115424 -0.103052
-0.204905 0.011789 -0.104718
-0.210834 0.0120381 -0.106382
-0.216772 0.0122897 -0.108043
-0.222716 0.0125437 -0.109699
-0.228663 0.0128 -0.111349
-0.234607 0.0130588 -0.112992
-0.240544 0.0133199 -0.114625
-0.246468 0.0135833 -0.116247
-0.25237 0.013849 -0.117856
-0.190873 0.0116821 -0.100998
-0.196638 0.0119308 -0.102661
-0.202417 0.0121821 -0.104324
-0.208208 0.0124359 -0.105986
-0.214009 0.0126923 -0.107644
-0.219816 0.0129511 -0.109299
-0.225625 0.0132125 -0.110949
-0.231433 0.0134763 -0.112591
-0.237235 0.0137426 -0.114226
-0.243024 0.0140113 -0.115849
-0.248793 0.0142823 -0.117461
-0.188597 0.012062 -0.100598
-0.194222 0.0123148 -0.102258
-0.199861 0.0125703 -0.103918
-0.205511 0.0128284 -0.105577
-0.211171 0.0130891 -0.107233
-0.216838 0.0133525 -0.108887
-0.222507 0.0136184 -0.110536
-0.228176 0.0138868 -0.112178
-0.233839 0.0141578 -0.113813
-0.23949 0.0144313 -0.115439
-0.245123 0.0147074 -0.117053
-0.18626 0.0124378 -0.100187
-0.191742 0.0126943 -0.101843
-0.197238 0.0129534 -0.1035
-0.202746 0.0132154 -0.105156
-0.208263 0.01348 -0.10681
-0.213786 0.0137473 -0.108462
-0.219313 0.0140173 -0.11011
-0.224839 0.01429 -0.111753
-0.23036 0.0145653 -0.113389
-0.235871 0.0148432 -0.115016
-0.241365 0.0151237 -0.116632
-0.183865 0.0128092 -0.0997635
-0.189202 0.0130689 -0.101416
-0.194553 0.0133313 -0.103069
-0.199915 0.0135965 -0.104723
-0.205286 0.0138645 -0.106375
-0.210664 0.0141354 -0.108026
-0.216045 0.014409 -0.109673
-0.221427 0.0146853 -0.111316
-0.226803 0.0149645 -0.112952
-0.232171 0.0152463 -0.114581
-0.237522 0.0155309 -0.1162
-0.181414 0.0131762 -0.0993291
-0.186605 0.0134384 -0.100978
-0.191808 0.0137036 -0.102628
-0.197022 0.0139716 -0.104278
-0.202246 0.0142425 -0.105928
-0.207475 0.0145163 -0.107577
-0.212709 0.0147931 -0.109224
-0.217942 0.0150727 -0.110866
-0.223172 0.0153551 -0.112504
-0.228393 0.0156404 -0.114134
-0.17891 0.0135385 -0.0988837
-0.183952 0.0138028 -0.100528
-0.189006 0.0140701 -0.102175
-0.194071 0.0143404 -0.103823
-0.199144 0.0146137 -0.10547
-0.204223 0.01489 -0.107118
-0.209307 0.0151692 -0.108763
-0.214391 0.0154515 -0.110406
-0.219471 0.0157368 -0.112044
-0.229613 -0.00134309 -0.0920791
-0.235946 -0.00171531 -0.0937727
-0.242274 -0.00208324 -0.0954759
-0.248593 -0.00244575 -0.0971896
-0.254895 -0.00280158 -0.0989149
-0.261171 -0.00314936 -0.100653
-0.208369 -0.000177317 -0.0870745
-0.214558 -0.0005676 -0.0887424
-0.220756 -0.000956457 -0.0904178
-0.22696 -0.00134304 -0.0921013
-0.233166 -0.00172642 -0.0937935
-0.239368 -0.00210553 -0.0954954
-0.245561 -0.00247921 -0.0972077
-0.251739 -0.00284619 -0.0989316
-0.257892 -0.00320503 -0.100668
-0.199979 0.000264312 -0.0854387
-0.206024 -0.000137012 -0.087098
-0.212081 -0.000537771 -0.0887644
-0.218148 -0.000937188 -0.0904384
-0.224221 -0.00133441 -0.0921205
-0.230296 -0.00172849 -0.0938114
-0.236368 -0.00211836 -0.0955119
-0.242432 -0.00250282 -0.097223
-0.248482 -0.00288057 -0.0989455
-0.254509 -0.00325014 -0.100681
-0.191798 0.000732841 -0.0838094
-0.197694 0.000321875 -0.0854604
-0.203605 -8.92928e-05 -0.0871181
-0.209527 -0.000499985 -0.088783
-0.215459 -0.000909441 -0.0904556
-0.221398 -0.0013168 -0.0921363
-0.227339 -0.0017211 -0.093826
-0.233278 -0.00212127 -0.0955252
-0.23921 -0.00251608 -0.097235
-0.245128 -0.00290421 -0.0989562
-0.251025 -0.00328416 -0.10069
-0.189583 0.000806695 -0.083829
-0.195342 0.00038658 -0.0854782
-0.201115 -3.38428e-05 -0.0871344
-0.206899 -0.000453906 -0.0887978
-0.212694 -0.000872848 -0.0904689
-0.218495 -0.00128981 -0.0921484
-0.224298 -0.00170383 -0.0938368
-0.230101 -0.0021138 -0.0955348
-0.235897 -0.00251851 -0.0972434
-0.24168 -0.0029166 -0.0989633
-0.247444 -0.00330654 -0.100696
-0.187305 0.000887338 -0.0838443
-0.192924 0.000458697 -0.0854918
-0.198556 2.96293e-05 -0.0871463
-0.2042 -0.000399205 -0.0888082
-0.209854 -0.000827049 -0.090478
-0.215514 -0.00125305 -0.0921562
-0.221178 -0.00167623 -0.0938434
-0.22684 -0.00209549 -0.0955403
-0.232497 -0.00250961 -0.0972477
-0.238143 -0.0029172 -0.0989665
-0.24377 -0.00331672 -0.100698
-0.184966 0.000974993 -0.0838548
-0.190442 0.000538481 -0.0855006
-0.195932 0.000101414 -0.0871535
-0.201433 -0.000335556 -0.0888139
-0.206943 -0.000771684 -0.0904824
-0.21246 -0.00120611 -0.0921594
-0.21798 -0.00163788 -0.0938454
-0.2235 -0.00206589 -0.0955413
-0.229015 -0.00248889 -0.0972476
-0.23452 -0.00290549 -0.0989654
-0.240008 -0.00331412 -0.100695
-0.18257 0.00106988 -0.0838601
-0.187901 0.000626184 -0.085504
-0.193245 0.000181798 -0.0871553
-0.1986 -0.000262641 -0.0888143
-0.203964 -0.000706396 -0.0904815
-0.209335 -0.00114862 -0.0921573
-0.21471 -0.00158836 -0.0938423
-0.220085 -0.00202451 -0.0955372
-0.225455 -0.00245582 -0.0972426
-0.230816 -0.00288091 -0.0989594
-0.236161 -0.00329817 -0.100689
-0.180117 0.0011722 -0.0838596
-0.185301 0.000722047 -0.0855017
-0.190498 0.000271056 -0.0871514
-0.195705 -0.000180146 -0.088809
-0.200921 -0.000630835 -0.0904749
-0.206144 -0.00108018 -0.0921496
-0.21137 -0.00152723 -0.0938336
-0.216597 -0.00197089 -0.0955276
-0.22182 -0.00240993 -0.0972322
-0.227035 -0.00284293 -0.0989481
-0.177612 0.00128216 -0.0838527
-0.182647 0.000826303 -0.085493
-0.187694 0.000369459 -0.0871411
-0.192751 -8.77626e-05 -0.0887973
-0.197817 -0.000544654 -0.0904621
-0.202889 -0.0010004 -0.0921357
-0.207965 -0.00145406 -0.0938188
-0.213042 -0.00190457 -0.095512
-0.218116 -0.00235068 -0.0972158
-0.23089 0.0107472 -0.110028
-0.237229 0.0109597 -0.111681
-0.243564 0.0111744 -0.113325
-0.249888 0.0113913 -0.114959
-0.256196 0.0116105 -0.11658
-0.262478 0.0118321 -0.118186
-0.209629 0.0105129 -0.104692
-0.215824 0.010724 -0.10636
-0.222028 0.0109374 -0.108024
-0.228239 0.0111531 -0.109683
-0.234451 0.011371 -0.111335
-0.240659 0.0115911 -0.11298
-0.246859 0.0118136 -0.114614
-0.253042 0.0120385 -0.116237
-0.259202 0.0122657 -0.117845
-0.201233 0.0106857 -0.102671
-0.207284 0.0108993 -0.10434
-0.213348 0.0111153 -0.106005
-0.219422 0.0113336 -0.107668
-0.225501 0.0115543 -0.109326
-0.231583 0.0117772 -0.110978
-0.237661 0.0120025 -0.112622
-0.243732 0.0122302 -0.114257
-0.249788 0.0124603 -0.115881
-0.255821 0.0126929 -0.117492
-0.193047 0.0108481 -0.100644
-0.19895 0.0110638 -0.10231
-0.204867 0.0112819 -0.103975
-0.210796 0.0115024 -0.105639
-0.216735 0.0117252 -0.107299
-0.22268 0.0119505 -0.108956
-0.228628 0.0121781 -0.110607
-0.234573 0.0124082 -0.112252
-0.240511 0.0126407 -0.113888
-0.246436 0.0128758 -0.115513
-0.252339 0.0131134 -0.117126
-0.190833 0.0112186 -0.100274
-0.196598 0.0114383 -0.101937
-0.202378 0.0116604 -0.103599
-0.20817 0.0118849 -0.10526
-0.213971 0.0121119 -0.106919
-0.219779 0.0123414 -0.108574
-0.225589 0.0125734 -0.110225
-0.231398 0.0128079 -0.111869
-0.237201 0.0130449 -0.113506
-0.242991 0.0132845 -0.115133
-0.248761 0.0135268 -0.116748
-0.188556 0.0115856 -0.0998923
-0.194181 0.0118088 -0.101552
-0.199821 0.0120345 -0.103211
-0.205472 0.0122628 -0.104869
-0.211133 0.0124936 -0.106526
-0.2168 0.0127269 -0.10818
-0.22247 0.0129628 -0.10983
-0.22814 0.0132013 -0.111475
-0.233804 0.0134424 -0.113112
-0.239456 0.0136862 -0.114741
-0.24509 0.0139327 -0.116358
-0.186218 0.0119489 -0.0994992
-0.191701 0.0121753 -0.101155
-0.197198 0.0124042 -0.102811
-0.202706 0.0126357 -0.104467
-0.208223 0.0128698 -0.106122
-0.213747 0.0131066 -0.107774
-0.219275 0.013346 -0.109424
-0.224802 0.0135881 -0.111068
-0.230324 0.0138329 -0.112706
-0.235836 0.0140805 -0.114336
-0.241331 0.0143308 -0.115956
-0.183823 0.0123084 -0.0990949
-0.189161 0.0125375 -0.100747
-0.194512 0.0127692 -0.1024
-0.199874 0.0130035 -0.104053
-0.205246 0.0132405 -0.105706
-0.210624 0.0134802 -0.107357
-0.216006 0.0137227 -0.109005
-0.221388 0.013968 -0.11065
-0.226766 0.0142161 -0.112288
-0.232134 0.014467 -0.11392
-0.237487 0.0147208 -0.115543
-0.181371 0.012664 -0.0986795
-0.186562 0.0128952 -0.100328
-0.191766 0.0131292 -0.101977
-0.196981 0.0133659 -0.103628
-0.202204 0.0136053 -0.105278
-0.207435 0.0138476 -0.106928
-0.212668 0.0140927 -0.108575
-0.217903 0.0143407 -0.11022
-0.223133 0.0145915 -0.111859
-0.228355 0.0148453 -0.113492
-0.178866 0.0130154 -0.0982532
-0.183909 0.0132483 -0.0998976
-0.188963 0.0134841 -0.101544
-0.194028 0.0137226 -0.103192
-0.199102 0.013964 -0.10484
-0.204182 0.0142083 -0.106488
-0.209265 0.0144555 -0.108134
-0.21435 0.0147058 -0.109778
-0.219431 0.014959 -0.111418
-0.23082 0.00967616 -0.108452
-0.230855 0.0102109 -0.109239
-0.237161 0.00983656 -0.110108
-0.237195 0.0103972 -0.110893
-0.243498 0.00999934 -0.111756
-0.243531 0.0105858 -0.11254
-0.249825 0.0101646 -0.113396
-0.249857 0.0107768 -0.114176
-0.256135 0.0103326 -0.115025
-0.256166 0.0109702 -0.115802
-0.26242 0.0105034 -0.116641
-0.262449 0.0111663 -0.117413
-0.209553 0.00956663 -0.103148
-0.209591 0.0100392 -0.103919
-0.215749 0.00972421 -0.104815
-0.215787 0.0102235 -0.105587
-0.221955 0.00988394 -0.10648
-0.221992 0.0104099 -0.107251
-0.228167 0.0100459 -0.10814
-0.228203 0.0105985 -0.108911
-0.234381 0.0102102 -0.109795
-0.234416 0.0107895 -0.110565
-0.240592 0.010377 -0.111444
-0.240626 0.0109828 -0.112211
-0.246793 0.0105463 -0.113084
-0.246826 0.0111786 -0.113848
-0.252979 0.0107183 -0.114714
-0.253011 0.0113769 -0.115475
-0.259141 0.0108933 -0.116332
-0.259172 0.0115779 -0.117088
-0.201155 0.00976341 -0.101163
-0.201194 0.010224 -0.101916
-0.207208 0.00992229 -0.10283
-0.207246 0.0104102 -0.103584
-0.213273 0.0100833 -0.104495
-0.213311 0.0105985 -0.105249
-0.219348 0.0102466 -0.106157
-0.219385 0.0107892 -0.106912
-0.225429 0.0104121 -0.107817
-0.225465 0.0109821 -0.10857
-0.231512 0.01058 -0.109471
-0.231547 0.0111774 -0.110224
-0.237592 0.0107505 -0.111119
-0.237627 0.0113751 -0.11187
-0.243665 0.0109235 -0.11276
-0.243699 0.0115753 -0.113508
-0.249723 0.0110994 -0.114392
-0.249756 0.0117782 -0.115136
-0.255758 0.0112782 -0.116012
-0.25579 0.0119837 -0.116751
-0.192967 0.00995319 -0.0991711
-0.193007 0.0104002 -0.0999066
-0.198871 0.0101131 -0.100836
-0.19891 0.0105878 -0.101572
-0.204789 0.0102751 -0.1025
-0.204828 0.0107777 -0.103237
-0.210719 0.0104392 -0.104163
-0.210758 0.0109699 -0.1049
-0.21666 0.0106057 -0.105824
-0.216697 0.0111644 -0.106561
-0.222606 0.0107745 -0.107482
-0.222643 0.0113613 -0.108218
-0.228555 0.0109458 -0.109135
-0.228592 0.0115606 -0.109871
-0.234503 0.0111196 -0.110784
-0.234538 0.0117624 -0.111517
-0.240443 0.0112962 -0.112425
-0.240477 0.0119667 -0.113156
-0.246369 0.0114755 -0.114058
-0.246403 0.0121738 -0.114785
-0.252275 0.011658 -0.11568
-0.252308 0.0123837 -0.116403
-0.190752 0.0102973 -0.0988361
-0.190792 0.0107574 -0.0995542
-0.196518 0.01046 -0.100497
-0.196558 0.0109484 -0.101216
-0.202299 0.0106248 -0.102159
-0.202339 0.0111417 -0.102878
-0.208092 0.0107918 -0.103819
-0.208131 0.0113373 -0.104539
-0.213894 0.0109612 -0.105478
-0.213933 0.0115354 -0.106198
-0.219703 0.011133 -0.107135
-0.219741 0.0117358 -0.107854
-0.225515 0.0113073 -0.108788
-0.225552 0.0119388 -0.109506
-0.231326 0.0114842 -0.110436
-0.231362 0.0121443 -0.111152
-0.23713 0.0116639 -0.112078
-0.237166 0.0123525 -0.112792
-0.242922 0.0118465 -0.113712
-0.242957 0.0125635 -0.114422
-0.248695 0.0120323 -0.115336
-0.248728 0.0127773 -0.116042
-0.188474 0.0106389 -0.0984901
-0.188515 0.0111116 -0.0991905
-0.1941 0.010804 -0.100148
-0.194141 0.0113056 -0.100849
-0.199741 0.0109713 -0.101806
-0.199781 0.0115019 -0.102508
-0.205393 0.0111409 -0.103465
-0.205432 0.0117006 -0.104167
-0.211055 0.0113128 -0.105122
-0.211094 0.0119018 -0.105824
-0.216723 0.0114873 -0.106777
-0.216762 0.0121056 -0.107478
-0.222395 0.0116643 -0.108429
-0.222433 0.0123118 -0.109129
-0.228066 0.011844 -0.110078
-0.228103 0.0125208 -0.110776
-0.233731 0.0120266 -0.11172
-0.233768 0.0127324 -0.112416
-0.239385 0.0122121 -0.113355
-0.239421 0.0129469 -0.114048
-0.245021 0.0124008 -0.114982
-0.245056 0.0131644 -0.11567
-0.186136 0.0109777 -0.0981332
-0.186177 0.0114625 -0.0988156
-0.191619 0.0111449 -0.0997876
-0.19166 0.0116591 -0.100471
-0.197117 0.0113144 -0.101443
-0.197157 0.0118582 -0.102127
-0.202625 0.0114862 -0.103099
-0.202666 0.0120596 -0.103783
-0.208144 0.0116604 -0.104754
-0.208184 0.0122636 -0.105438
-0.213669 0.0118372 -0.106408
-0.213708 0.0124702 -0.107091
-0.219198 0.0120166 -0.10806
-0.219236 0.0126794 -0.108741
-0.224726 0.0121988 -0.109708
-0.224764 0.0128914 -0.110388
-0.230249 0.0123839 -0.111351
-0.230287 0.0131061 -0.112028
-0.235763 0.012572 -0.112987
-0.235799 0.0133238 -0.113662
-0.24126 0.0127634 -0.114615
-0.241295 0.0135445 -0.115286
-0.183739 0.0113137 -0.0977656
-0.183781 0.0118102 -0.0984297
-0.189078 0.0114827 -0.0994165
-0.189119 0.012009 -0.100081
-0.19443 0.011654 -0.101069
-0.194471 0.0122103 -0.101734
-0.199793 0.0118276 -0.102722
-0.199834 0.0124141 -0.103387