# vtk DataFile Version 3.0
Generated by Jean Bénézech
ASCII
DATASET UNSTRUCTURED_GRID
POINTS 4176 double
54.89 116.753 338
54.99 116.818 336
55.09 116.883 334
55.19 116.949 332
55.29 117.014 330
55.39 117.079 328
55.49 117.144 326
55.59 117.209 324
55.69 117.274 322
55.79 117.339 320
55.89 117.405 318
55.99 117.47 316
54.79 115.514 340
56.09 116.337 314
54.79 114.339 340
56.19 115.2 312
54.79 113.165 340
56.19 114 312
54.89 112.049 338
56.09 112.742 314
54.99 110.928 336
56.09 111.544 314
54.99 109.75 336
56.09 110.346 314
54.99 108.572 336
56.09 109.148 314
54.99 107.394 336
56.09 107.95 314
55.09 106.265 334
55.19 106.314 332
55.29 106.362 330
56.09 106.751 314
55.29 105.179 330
56.09 105.553 314
55.39 104.04 328
55.49 104.085 326
55.59 104.13 324
55.69 104.175 322
55.79 104.22 320
55.89 104.265 318
55.99 104.31 316
54.64 116.753 338
54.74 116.818 336
54.84 116.883 334
54.94 116.949 332
55.04 117.014 330
55.14 117.079 328
55.24 117.144 326
55.34 117.209 324
55.44 117.274 322
55.54 117.339 320
55.64 117.405 318
55.74 117.47 316
54.54 115.514 340
55.84 116.337 314
54.54 114.339 340
55.94 115.2 312
54.54 113.165 340
55.94 114 312
54.64 112.049 338
55.84 112.742 314
54.74 110.928 336
55.84 111.544 314
54.74 109.75 336
55.84 110.346 314
54.74 108.572 336
55.84 109.148 314
54.74 107.394 336
55.84 107.95 314
54.84 106.265 334
54.94 106.314 332
55.04 106.362 330
55.84 106.751 314
55.04 105.179 330
55.84 105.553 314
55.14 104.04 328
55.24 104.085 326
55.34 104.13 324
55.44 104.175 322
55.54 104.22 320
55.64 104.265 318
55.74 104.31 316
54.39 116.753 338
54.49 116.818 336
54.59 116.883 334
54.69 116.949 332
54.79 117.014 330
54.89 117.079 328
54.99 117.144 326
55.09 117.209 324
55.19 117.274 322
55.29 117.339 320
55.39 117.405 318
55.49 117.47 316
54.29 115.514 340
55.59 116.337 314
54.29 114.339 340
55.69 115.2 312
54.29 113.165 340
55.69 114 312
54.39 112.049 338
55.59 112.742 314
54.49 110.928 336
55.59 111.544 314
54.49 109.75 336
55.59 110.346 314
54.49 108.572 336
55.59 109.148 314
54.49 107.394 336
55.59 107.95 314
54.59 106.265 334
54.69 106.314 332
54.79 106.362 330
55.59 106.751 314
54.79 105.179 330
55.59 105.553 314
54.89 104.04 328
54.99 104.085 326
55.09 104.13 324
55.19 104.175 322
55.29 104.22 320
55.39 104.265 318
55.49 104.31 316
54.38 116.753 338
54.48 116.818 336
54.58 116.883 334
54.68 116.949 332
54.78 117.014 330
54.88 117.079 328
54.98 117.144 326
55.08 117.209 324
55.18 117.274 322
55.28 117.339 320
55.38 117.405 318
55.48 117.47 316
54.28 115.514 340
55.58 116.337 314
54.28 114.339 340
55.68 115.2 312
54.28 113.165 340
55.68 114 312
54.38 112.049 338
55.58 112.742 314
54.48 110.928 336
55.58 111.544 314
54.48 109.75 336
55.58 110.346 314
54.48 108.572 336
55.58 109.148 314
54.48 107.394 336
55.58 107.95 314
54.58 106.265 334
54.68 106.314 332
54.78 106.362 330
55.58 106.751 314
54.78 105.179 330
55.58 105.553 314
54.88 104.04 328
54.98 104.085 326
55.08 104.13 324
55.18 104.175 322
55.28 104.22 320
55.38 104.265 318
55.48 104.31 316
54.13 116.753 338
54.23 116.818 336
54.33 116.883 334
54.43 116.949 332
54.53 117.014 330
54.63 117.079 328
54.73 117.144 326
54.83 117.209 324
54.93 117.274 322
55.03 117.339 320
55.13 117.405 318
55.23 117.47 316
54.03 115.514 340
55.33 116.337 314
54.03 114.339 340
55.43 115.2 312
54.03 113.165 340
55.43 114 312
54.13 112.049 338
55.33 112.742 314
54.23 110.928 336
55.33 111.544 314
54.23 109.75 336
55.33 110.346 314
54.23 108.572 336
55.33 109.148 314
54.23 107.394 336
55.33 107.95 314
54.33 106.265 334
54.43 106.314 332
54.53 106.362 330
55.33 106.751 314
54.53 105.179 330
55.33 105.553 314
54.63 104.04 328
54.73 104.085 326
54.83 104.13 324
54.93 104.175 322
55.03 104.22 320
55.13 104.265 318
55.23 104.31 316
54.12 116.753 338
54.22 116.818 336
54.32 116.883 334
54.42 116.949 332
54.52 117.014 330
54.62 117.079 328
54.72 117.144 326
54.82 117.209 324
54.92 117.274 322
55.02 117.339 320
55.12 117.405 318
55.22 117.47 316
54.02 115.514 340
55.32 116.337 314
54.02 114.339 340
55.42 115.2 312
54.02 113.165 340
55.42 114 312
54.12 112.049 338
55.32 112.742 314
54.22 110.928 336
55.32 111.544 314
54.22 109.75 336
55.32 110.346 314
54.22 108.572 336
55.32 109.148 314
54.22 107.394 336
55.32 107.95 314
54.32 106.265 334
54.42 106.314 332
54.52 106.362 330
55.32 106.751 314
54.52 105.179 330
55.32 105.553 314
54.62 104.04 328
54.72 104.085 326
54.82 104.13 324
54.92 104.175 322
55.02 104.22 320
55.12 104.265 318
55.22 104.31 316
53.87 116.753 338
53.97 116.818 336
54.07 116.883 334
54.17 116.949 332
54.27 117.014 330
54.37 117.079 328
54.47 117.144 326
54.57 117.209 324
54.67 117.274 322
54.77 117.339 320
54.87 117.405 318
54.97 117.47 316
53.77 115.514 340
55.07 116.337 314
53.77 114.339 340
55.17 115.2 312
53.77 113.165 340
55.17 114 312
53.87 112.049 338
55.07 112.742 314
53.97 110.928 336
55.07 111.544 314
53.97 109.75 336
55.07 110.346 314
53.97 108.572 336
55.07 109.148 314
53.97 107.394 336
55.07 107.95 314
54.07 106.265 334
54.17 106.314 332
54.27 106.362 330
55.07 106.751 314
54.27 105.179 330
55.07 105.553 314
54.37 104.04 328
54.47 104.085 326
54.57 104.13 324
54.67 104.175 322
54.77 104.22 320
54.87 104.265 318
54.97 104.31 316
53.62 116.753 338
53.72 116.818 336
53.82 116.883 334
53.92 116.949 332
54.02 117.014 330
54.12 117.079 328
54.22 117.144 326
54.32 117.209 324
54.42 117.274 322
54.52 117.339 320
54.62 117.405 318
54.72 117.47 316
53.52 115.514 340
54.82 116.337 314
53.52 114.339 340
54.92 115.2 312
53.52 113.165 340
54.92 114 312
53.62 112.049 338
54.82 112.742 314
53.72 110.928 336
54.82 111.544 314
53.72 109.75 336
54.82 110.346 314
53.72 108.572 336
54.82 109.148 314
53.72 107.394 336
54.82 107.95 314
53.82 106.265 334
53.92 106.314 332
54.02 106.362 330
54.82 106.751 314
54.02 105.179 330
54.82 105.553 314
54.12 104.04 328
54.22 104.085 326
54.32 104.13 324
54.42 104.175 322
54.52 104.22 320
54.62 104.265 318
54.72 104.31 316
53.37 116.753 338
53.47 116.818 336
53.57 116.883 334
53.67 116.949 332
53.77 117.014 330
53.87 117.079 328
53.97 117.144 326
54.07 117.209 324
54.17 117.274 322
54.27 117.339 320
54.37 117.405 318
54.47 117.47 316
53.27 115.514 340
54.57 116.337 314
53.27 114.339 340
54.67 115.2 312
53.27 113.165 340
54.67 114 312
53.37 112.049 338
54.57 112.742 314
53.47 110.928 336
54.57 111.544 314
53.47 109.75 336
54.57 110.346 314
53.47 108.572 336
54.57 109.148 314
53.47 107.394 336
54.57 107.95 314
53.57 106.265 334
53.67 106.314 332
53.77 106.362 330
54.57 106.751 314
53.77 105.179 330
54.57 105.553 314
53.87 104.04 328
53.97 104.085 326
54.07 104.13 324
54.17 104.175 322
54.27 104.22 320
54.37 104.265 318
54.47 104.31 316
53.12 116.753 338
53.22 116.818 336
53.32 116.883 334
53.42 116.949 332
53.52 117.014 330
53.62 117.079 328
53.72 117.144 326
53.82 117.209 324
53.92 117.274 322
54.02 117.339 320
54.12 117.405 318
54.22 117.47 316
53.02 115.514 340
54.32 116.337 314
53.02 114.339 340
54.42 115.2 312
53.02 113.165 340
54.42 114 312
53.12 112.049 338
54.32 112.742 314
53.22 110.928 336
54.32 111.544 314
53.22 109.75 336
54.32 110.346 314
53.22 108.572 336
54.32 109.148 314
53.22 107.394 336
54.32 107.95 314
53.32 106.265 334
53.42 106.314 332
53.52 106.362 330
54.32 106.751 314
53.52 105.179 330
54.32 105.553 314
53.62 104.04 328
53.72 104.085 326
53.82 104.13 324
53.92 104.175 322
54.02 104.22 320
54.12 104.265 318
54.22 104.31 316
52.87 116.753 338
52.97 116.818 336
53.07 116.883 334
53.17 116.949 332
53.27 117.014 330
53.37 117.079 328
53.47 117.144 326
53.57 117.209 324
53.67 117.274 322
53.77 117.339 320
53.87 117.405 318
53.97 117.47 316
52.77 115.514 340
54.07 116.337 314
52.77 114.339 340
54.17 115.2 312
52.77 113.165 340
54.17 114 312
52.87 112.049 338
54.07 112.742 314
52.97 110.928 336
54.07 111.544 314
52.97 109.75 336
54.07 110.346 314
52.97 108.572 336
54.07 109.148 314
52.97 107.394 336
54.07 107.95 314
53.07 106.265 334
53.17 106.314 332
53.27 106.362 330
54.07 106.751 314
53.27 105.179 330
54.07 105.553 314
53.37 104.04 328
53.47 104.085 326
53.57 104.13 324
53.67 104.175 322
53.77 104.22 320
53.87 104.265 318
53.97 104.31 316
52.62 116.753 338
52.72 116.818 336
52.82 116.883 334
52.92 116.949 332
53.02 117.014 330
53.12 117.079 328
53.22 117.144 326
53.32 117.209 324
53.42 117.274 322
53.52 117.339 320
53.62 117.405 318
53.72 117.47 316
52.52 115.514 340
53.82 116.337 314
52.52 114.339 340
53.92 115.2 312
52.52 113.165 340
53.92 114 312
52.62 112.049 338
53.82 112.742 314
52.72 110.928 336
53.82 111.544 314
52.72 109.75 336
53.82 110.346 314
52.72 108.572 336
53.82 109.148 314
52.72 107.394 336
53.82 107.95 314
52.82 106.265 334
52.92 106.314 332
53.02 106.362 330
53.82 106.751 314
53.02 105.179 330
53.82 105.553 314
53.12 104.04 328
53.22 104.085 326
53.32 104.13 324
53.42 104.175 322
53.52 104.22 320
53.62 104.265 318
53.72 104.31 316
52.37 116.753 338
52.47 116.818 336
52.57 116.883 334
52.67 116.949 332
52.77 117.014 330
52.87 117.079 328
52.97 117.144 326
53.07 117.209 324
53.17 117.274 322
53.27 117.339 320
53.37 117.405 318
53.47 117.47 316
52.27 115.514 340
53.57 116.337 314
52.27 114.339 340
53.67 115.2 312
52.27 113.165 340
53.67 114 312
52.37 112.049 338
53.57 112.742 314
52.47 110.928 336
53.57 111.544 314
52.47 109.75 336
53.57 110.346 314
52.47 108.572 336
53.57 109.148 314
52.47 107.394 336
53.57 107.95 314
52.57 106.265 334
52.67 106.314 332
52.77 106.362 330
53.57 106.751 314
52.77 105.179 330
53.57 105.553 314
52.87 104.04 328
52.97 104.085 326
53.07 104.13 324
53.17 104.175 322
53.27 104.22 320
53.37 104.265 318
53.47 104.31 316
52.36 116.753 338
52.46 116.818 336
52.56 116.883 334
52.66 116.949 332
52.76 117.014 330
52.86 117.079 328
52.96 117.144 326
53.06 117.209 324
53.16 117.274 322
53.26 117.339 320
53.36 117.405 318
53.46 117.47 316
52.26 115.514 340
53.56 116.337 314
52.26 114.339 340
53.66 115.2 312
52.26 113.165 340
53.66 114 312
52.36 112.049 338
53.56 112.742 314
52.46 110.928 336
53.56 111.544 314
52.46 109.75 336
53.56 110.346 314
52.46 108.572 336
53.56 109.148 314
[...]
POINT_DATA 4176
SCALARS DISPLACEMENT double 3
LOOKUP_TABLE default
0 0 0
0 0 0
0 0 0
0 0 0
0 0 0
0 0 0
0 0 0
0 0 0
0 0 0
0 0 0
0 0 0
0 0 0
0 0 0
0 0 0
0 0 0
0 0 0
0 0 0
0 0 0
0 0 0
0 0 0
0 0 0
0 0 0
0 0 0
0 0 0
0 0 0
0 0 0
0 0 0
0 0 0
0 0 0
0 0 0
0 0 0
0 0 0
0 0 0
0 0 0
0 0 0
0 0 0
0 0 0
0 0 0
0 0 0
0 0 0
0 0 0
0 0 0
0 0 0
0 0 0
0 0 0
0 0 0
0 0 0
0 0 0
0 0 0
0 0 0
0 0 0
0 0 0
0 0 0
0 0 0
0 0 0
0 0 0
0 0 0
0 0 0
0 0 0
0 0 0
0 0 0
0 0 0
0 0 0
0 0 0
0 0 0
0 0 0
0 0 0
0 0 0
0 0 0
0 0 0
0 0 0
0 0 0
0 0 0
0 0 0
0 0 0
0 0 0
0 0 0
0 0 0
0 0 0
0 0 0
0 0 0
0 0 0
0 0 0
0 0 0
0 0 0
0 0 0
0 0 0
0 0 0
0 0 0
0 0 0
0 0 0
0 0 0
0 0 0
0 0 0
0 0 0
0 0 0
0 0 0
0 0 0
0 0 0
0 0 0
0 0 0
0 0 0
0 0 0
0 0 0
0 0 0
0 0 0
0 0 0
0 0 0
0 0 0
0 0 0
0 0 0
0 0 0
0 0 0
0 0 0
0 0 0
0 0 0
0 0 0
0 0 0
0 0 0
0 0 0
0 0 0
0 0 0
0 0 0
0 0 0
0 0 0
0 0 0
0 0 0
0 0 0
0 0 0
0 0 0
0 0 0
0 0 0
0 0 0
0 0 0
0 0 0
0 0 0
0 0 0
0 0 0
0 0 0
0 0 0
0 0 0
0 0 0
0 0 0
0 0 0
0 0 0
0 0 0
0 0 0
0 0 0
0 0 0
0 0 0
0 0 0
0 0 0
0 0 0
0 0 0
0 0 0
0 0 0
0 0 0
0 0 0
0 0 0
0 0 0
0 0 0
0 0 0
0 0 0
0 0 0
0 0 0
0 0 0
0 0 0
0 0 0
0 0 0
0 0 0
0 0 0
0 0 0
0 0 0
0 0 0
0 0 0
0 0 0
0 0 0
0 0 0
0 0 0
0 0 0
0 0 0
0 0 0
0 0 0
0 0 0
0 0 0
0 0 0
0 0 0
0 0 0
0 0 0
0 0 0
0 0 0
0 0 0
0 0 0
0 0 0
0 0 0
0 0 0
0 0 0
0 0 0
0 0 0
0 0 0
0 0 0
0 0 0
0 0 0
0 0 0
0 0 0
0 0 0
0 0 0
0 0 0
0 0 0
0 0 0
0 0 0
0 0 0
0 0 0
0 0 0
0 0 0
0 0 0
0 0 0
0 0 0
0 0 0
0 0 0
0 0 0
0 0 0
0 0 0
0 0 0
0 0 0
0 0 0
0 0 0
0 0 0
0 0 0
0 0 0
0 0 0
0 0 0
0 0 0
0 0 0
0 0 0
0 0 0
0 0 0
0 0 0
0 0 0
0 0 0
0 0 0
0 0 0
0 0 0
0 0 0
0 0 0
0 0 0
0 0 0
0 0 0
0 0 0
0 0 0
0 0 0
0 0 0
0 0 0
0 0 0
0 0 0
0 0 0
0 0 0
0 0 0
0 0 0
0 0 0
0 0 0
0 0 0
0 0 0
0 0 0
0 0 0
0 0 0
0 0 0
0 0 0
0 0 0
0 0 0
0 0 0
0 0 0
0 0 0
0 0 0
0 0 0
0 0 0
0 0 0
0 0 0
0 0 0
0 0 0
0 0 0
0 0 0
0 0 0
0 0 0
0 0 0
0 0 0
0 0 0
0 0 0
0 0 0
0 0 0
0 0 0
0 0 0
0 0 0
0 0 0
0 0 0
0 0 0
0 0 0
0 0 0
0 0 0
0 0 0
0 0 0
0 0 0
0 0 0
0 0 0
0 0 0
0 0 0
0 0 0
0 0 0
0 0 0
0 0 0
0 0 0
0 0 0
0 0 0
0 0 0
0 0 0
0 0 0
0 0 0
0 0 0
0 0 0
0 0 0
0 0 0
0 0 0
0 0 0
0 0 0
0 0 0
0 0 0
0 0 0
0 0 0
0 0 0
0 0 0
0 0 0
0 0 0
0 0 0
0 0 0
0 0 0
0 0 0
0 0 0
0 0 0
0 0 0
0 0 0
0 0 0
0 0 0
0 0 0
0 0 0
0 0 0
0 0 0
0 0 0
0 0 0
0 0 0
0 0 0
0 0 0
0 0 0
0 0 0
0 0 0
0 0 0
0 0 0
0 0 0
0 0 0
0 0 0
0 0 0
0 0 0
0 0 0
0 0 0
0 0 0
0 0 0
0 0 0
0 0 0
0 0 0
0 0 0
0 0 0
0 0 0
0 0 0
0 0 0
0 0 0
0 0 0
0 0 0
0 0 0
0 0 0
0 0 0
0 0 0
0 0 0
0 0 0
0 0 0
0 0 0
0 0 0
0 0 0
0 0 0
0 0 0
0 0 0
0 0 0
0 0 0
0 0 0
0 0 0
0 0 0
0 0 0
0 0 0
0 0 0
0 0 0
0 0 0
0 0 0
0 0 0
0 0 0
0 0 0
0 0 0
0 0 0
0 0 0
0 0 0
0 0 0
0 0 0
0 0 0
0 0 0
0 0 0
0 0 0
0 0 0
0 0 0
0 0 0
0 0 0
0 0 0
0 0 0
0 0 0
0 0 0
0 0 0
0 0 0
0 0 0
0 0 0
0 0 0
0 0 0
0 0 0
0 0 0
0 0 0
0 0 0
0 0 0
0 0 0
0 0 0
0 0 0
0 0 0
0 0 0
0 0 0
0 0 0
0 0 0
0 0 0
0 0 0
0 0 0
0 0 0
0 0 0
0 0 0
0 0 0
0 0 0
0 0 0
0 0 0
0 0 0
0 0 0
0 0 0
0 0 0
0 0 0
0 0 0
0 0 0
0 0 0
0 0 0
0 0 0
0 0 0
0 0 0
0 0 0
0 0 0
0 0 0
0 0 0
0 0 0
0 0 0
0 0 0
0 0 0
0 0 0
0 0 0
0 0 0
0 0 0
0 0 0
0 0 0
0 0 0
0 0 0
0 0 0
0 0 0
0 0 0
0 0 0
0 0 0
0 0 0
0 0 0
0 0 0
0 0 0
0 0 0
0 0 0
0 0 0
0 0 0
0 0 0
0 0 0
0 0 0
0 0 0
0 0 0
0 0 0
0 0 0
0 0 0
0 0 0
0 0 0
0 0 0
0 0 0
0 0 0
0 0 0
0 0 0
0 0 0
0 0 0
0 0 0
0 0 0
0 0 0
0 0 0
0 0 0
0 0 0
0 0 0
0 0 0
0 0 0
0 0 0
0 0 0
0 0 0
0 0 0
0 0 0
0 0 0
0 0 0
0 0 0
0 0 0
0 0 0
0 0 0
0 0 0
0 0 0
0 0 0
0 0 0
0 0 0
0 0 0
0 0 0
0 0 0
0 0 0
0 0 0
0 0 0
0 0 0
0 0 0
0 0 0
0 0 0
0 0 0
0 0 0
0 0 0
0 0 0
0 0 0
0 0 0
0 0 0
0 0 0
0 0 0
0 0 0
0 0 0
0 0 0
0 0 0
0 0 0
0 0 0
0 0 0
0 0 0
0 0 0
0 0 0
0 0 0
0 0 0
0 0 0
0 0 0
0 0 0
0 0 0
0 0 0
0 0 0
0 0 0
0 0 0
0 0 0
0 0 0
0 0 0
0 0 0
0 0 0
0 0 0
0 0 0
0 0 0
0 0 0
0 0 0
0 0 0
0 0 0
0 0 0
0 0 0
0 0 0
0 0 0
0 0 0
0 0 0
0 0 0
0 0 0
0 0 0
0 0 0
0 0 0
0 0 0
0 0 0
0 0 0
0 0 0
0 0 0
0 0 0
0 0 0
0 0 0
0 0 0
0 0 0
0 0 0
0 0 0
0 0 0
0 0 0
0 0 0
0 0 0
0 0 0
0 0 0
0 0 0
0 0 0
0 0 0
0 0 0
0 0 0
0 0 0
0 0 0
0 0 0
0 0 0
0 0 0
0 0 0
0 0 0
0 0 0
0 0 0
0 0 0
0 0 0
0 0 0
0 0 0
0 0 0
0 0 0
0 0 0
0 0 0
0 0 0
0 0 0
0 0 0
0 0 0
0 0 0
0 0 0
0 0 0
0 0 0
0 0 0
0 0 0
0 0 0
0 0 0
0 0 0
0 0 0
0 0 0
0 0 0
0 0 0
0 0 0
0 0 0
0 0 0
0 0 0
0 0 0
0 0 0
0 0 0
0 0 0
0 0 0
0 0 0
0 0 0
0 0 0
0 0 0
0 0 0
0 0 0
0 0 0
0 0 0
0 0 0
0 0 0
0 0 0
0 0 0
0 0 0
0 0 0
0 0 0
0 0 0
0 0 0
0 0 0
0 0 0
0 0 0
0 0 0
0 0 0
0 0 0
0 0 0
0 0 0
0 0 0
0 0 0
0 0 0
0 0 0
0 0 0
0 0 0
0 0 0
0 0 0
0 0 0
0 0 0
0 0 0
0 0 0
0 0 0
0 0 0
0 0 0
0 0 0
0 0 0
0 0 0
0 0 0
0 0 0
0 0 0
0 0 0
0 0 0
0 0 0
0 0 0
0 0 0
0 0 0
0 0 0
0 0 0
0 0 0
0 0 0
0 0 0
0 0 0
0 0 0
0 0 0
0 0 0
0 0 0
0 0 0
0 0 0
0 0 0
0 0 0
0 0 0
0 0 0
0 0 0
0 0 0
0 0 0
0 0 0
0 0 0
0 0 0
0 0 0
0 0 0
0 0 0
0 0 0
0 0 0
0 0 0
0 0 0
0 0 0
0 0 0
0 0 0
0 0 0
0 0 0
0 0 0
0 0 0
0 0 0
0 0 0
0 0 0
0 0 0
0 0 0
0 0 0
0 0 0
0 0 0
0 0 0
0 0 0
0 0 0
0 0 0
0 0 0
0 0 0
0 0 0
0 0 0
0 0 0
0 0 0
0 0 0
0 0 0
0 0 0
0 0 0
0 0 0
0 0 0
0 0 0
0 0 0
0 0 0
0 0 0
0 0 0
0 0 0
0 0 0
0 0 0
0 0 0
0 0 0
0 0 0
0 0 0
0 0 0
0 0 0
0 0 0
0 0 0
0 0 0
0 0 0
0 0 0
0 0 0
0 0 0
0 0 0
0 0 0
0 0 0
0 0 0
0 0 0
0 0 0
0 0 0
0 0 0
0 0 0
0 0 0
0 0 0
0 0 0
0 0 0
0 0 0
0 0 0
0 0 0
0 0 0
0 0 0
0 0 0
0 0 0
0 0 0
0 0 0
0 0 0
0 0 0
0 0 0
0 0 0
0 0 0
0 0 0
0 0 0
0 0 0
0 0 0
0 0 0
0 0 0
0 0 0
0 0 0
0 0 0
0 0 0
0 0 0
0 0 0
0 0 0
0 0 0
0 0 0
0 0 0
0 0 0
0 0 0
0 0 0
0 0 0
0 0 0
0 0 0
0 0 0
0 0 0
0 0 0
0 0 0
0 0 0
0 0 0
0 0 0
0 0 0
0 0 0
0 0 0
0 0 0
0 0 0
0 0 0
0 0 0
0 0 0
0 0 0
0 0 0
0 0 0
0 0 0
0 0 0
0 0 0
0 0 0
0 0 0
0 0 0
0 0 0
0 0 0
0 0 0
0 0 0
0 0 0
0 0 0
0 0 0
0 0 0
0 0 0
0 0 0
0 0 0
0 0 0
0 0 0
0 0 0
0 0 0
0 0 0
0 0 0
0 0 0
0 0 0
0 0 0
0 0 0
0 0 0
0 0 0
0 0 0
0 0 0
0 0 0
0 0 0
0 0 0
0 0 0
0 0 0
0 0 0
0 0 0
0 0 0
0 0 0
0 0 0
0 0 0
0 0 0
0 0 0
0 0 0
0 0 0
0 0 0
0 0 0
0 0 0
0 0 0
0 0 0
0 0 0
0 0 0
0 0 0
0 0 0
0 0 0
0 0 0
0 0 0
0 0 0
0 0 0
0 0 0
0 0 0
0 0 0
0 0 0
0 0 0
0 0 0
0 0 0
0 0 0
0 0 0
0 0 0
0 0 0
0 0 0
0 0 0
0 0 0
0 0 0
0 0 0
0 0 0
0 0 0
0 0 0
0 0 0
0 0 0
0 0 0
0 0 0
0 0 0
0 0 0
0 0 0
0 0 0
0 0 0
0 0 0
0 0 0
0 0 0
0 0 0
0 0 0
0 0 0
0 0 0
0 0 0
0 0 0
0 0 0
0 0 0
0 0 0
0 0 0
0 0 0
0 0 0
0 0 0
0 0 0
0 0 0
0 0 0
0 0 0
0 0 0
0 0 0
0 0 0
0 0 0
0 0 0
0 0 0
0 0 0
0 0 0
0 0 0
0 0 0
0 0 0
0 0 0
0 0 0
0 0 0
0 0 0
0 0 0
0 0 0
0 0 0
0 0 0
0 0 0
0 0 0
0 0 0
0 0 0
0 0 0
0 0 0
0 0 0
0 0 0
0 0 0
0 0 0
0 0 0
0 0 0
0 0 0
0 0 0
0 0 0
0 0 0
0 0 0
0 0 0
0 0 0
0 0 0
0 0 0
0 0 0
0 0 0
0 0 0
0 0 0
0 0 0
0 0 0
0 0 0
0 0 0
0 0 0
0 0 0
0 0 0
0 0 0
0 0 0
0 0 0
0 0 0
0 0 0
0 0 0
0 0 0
0 0 0
0 0 0
0 0 0
0 0 0
0 0 0
0 0 0
0 0 0
0 0 0
0 0 0
0 0 0
0 0 0
0 0 0
0 0 0
0 0 0
0 0 0
0 0 0
0 0 0
0 0 0
0 0 0
0 0 0
0 0 0
0 0 0
0 0 0
0 0 0
0 0 0
0 0 0
0 0 0
0 0 0
0 0 0
0 0 0
0 0 0
0 0 0
0 0 0
0 0 0
0 0 0
0 0 0
0 0 0
0 0 0
0 0 0
0 0 0
0 0 0
0 0 0
0 0 0
0 0 0
0 0 0
0 0 0
0 0 0
0 0 0
0 0 0
0 0 0
0 0 0
0 0 0
0 0 0
0 0 0
0 0 0
0 0 0
0 0 0
0 0 0
0 0 0
0 0 0
0 0 0
0 0 0
0 0 0
0 0 0
0 0 0
0 0 0
0 0 0
0 0 0
0 0 0
0 0 0
0 0 0
0 0 0
0 0 0
0 0 0
0 0 0
0 0 0
0 0 0
0 0 0
0 0 0
0 0 0
0 0 0
0 0 0
0 0 0
0 0 0
0 0 0
0 0 0
0 0 0
0 0 0
0 0 0
0 0 0
0 0 0
0 0 0
0 0 0
0 0 0
0 0 0
0 0 0
0 0 0
0 0 0
0 0 0
0 0 0
0 0 0
0 0 0
0 0 0
0 0 0
0 0 0
0 0 0
0 0 0
0 0 0
0 0 0
0 0 0
0 0 0
0 0 0
0 0 0
0 0 0
0 0 0
0 0 0
0 0 0
0 0 0
0 0 0
0 0 0
0 0 0
0 0 0
0 0 0
0 0 0
0 0 0
0 0 0
0 0 0
0 0 0
0 0 0
0 0 0
0 0 0
0 0 0
0 0 0
0 0 0
0 0 0
0 0 0
0 0 0
0 0 0
0 0 0
0 0 0
0 0 0
0 0 0
0 0 0
0 0 0
0 0 0
0 0 0
0 0 0
0 0 0
0 0 0
0 0 0
0 0 0
0 0 0
0 0 0
0 0 0
0 0 0
0 0 0
0 0 0
0 0 0
0 0 0
0 0 0
0 0 0
0 0 0
-0.0784741 0.00411851 -0.0400348
-0.0804096 0.00419649 -0.0405523
-0.0823285 0.00427513 -0.0410621
-0.0842262 0.00435447 -0.0415631
-0.0860977 0.00443458 -0.0420539
-0.0879373 0.00451556 -0.0425331
-0.0774118 0.00426816 -0.0399234
-0.0793098 0.00434821 -0.0404422
-0.0811919 0.00442894 -0.0409535
-0.0830538 0.0045104 -0.0414563
-0.0848906 0.00459264 -0.0419492
-0.0866966 0.00467576 -0.0424309
-0.076316 0.00441545 -0.0398079
-0.0781754 0.00449747 -0.040328
-0.0800197 0.00458018 -0.040841
-0.0818447 0.00466364 -0.0413456
-0.0836456 0.00474791 -0.0418407
-0.0854169 0.00483307 -0.0423249
-0.0871524 0.00491927 -0.0427965
-0.0888449 0.00500668 -0.043254
-0.0904864 0.00509551 -0.0436955
-0.0751881 0.00456025 -0.0396884
-0.0770077 0.00464412 -0.0402098
-0.078813 0.00472871 -0.0407244
-0.0806 0.00481406 -0.0412311
-0.082364 0.00490024 -0.0417284
-0.0840997 0.00498734 -0.0422152
-0.0858008 0.00507549 -0.0426897
-0.0874606 0.00516488 -0.0431504
-0.0890709 0.00525572 -0.0435954
-0.0740292 0.00470242 -0.0395649
-0.075808 0.00478803 -0.0400877
-0.0775733 0.00487438 -0.040604
-0.0793213 0.00496151 -0.0411127
-0.0810473 0.00504948 -0.0416124
-0.0827463 0.00513839 -0.0421018
-0.0844121 0.00522838 -0.0425793
-0.0860382 0.00531962 -0.0430433
-0.0876165 0.00541235 -0.0434919
-0.0728406 0.00484183 -0.0394375
-0.0745776 0.00492905 -0.0399617
-0.076302 0.00501704 -0.0404797
-0.0780099 0.00510582 -0.0409905
-0.0796969 0.00519546 -0.0414926
-0.0813582 0.00528606 -0.0419848
-0.0829878 0.00537776 -0.0424654
-0.0845792 0.00547073 -0.0429328
-0.0861247 0.00556521 -0.0433852
-0.0716239 0.00497835 -0.0393062
-0.0733181 0.00506705 -0.0398318
-0.0750005 0.00515654 -0.0403517
-0.0766673 0.00524685 -0.0408645
-0.0783144 0.00533803 -0.0413691
-0.079937 0.00543019 -0.0418641
-0.0815295 0.00552346 -0.042348
-0.0830853 0.00561802 -0.042819
-0.0845971 0.00571412 -0.0432752
-0.0860564 0.00581206 -0.0437146
-0.0703805 0.00511182 -0.039171
-0.0720309 0.00520187 -0.0396982
-0.0736703 0.00529273 -0.0402198
-0.0752952 0.00538442 -0.0407348
-0.0769014 0.00547701 -0.041242
-0.0784845 0.00557059 -0.0417399
-0.0800388 0.00566529 -0.0422271
-0.0815582 0.00576131 -0.0427018
-0.0830355 0.00585889 -0.043162
-0.0844623 0.00595833 -0.0436057
-0.0858289 0.00606004 -0.0440304
-0.0674985 0.00515167 -0.0384993
-0.0691118 0.0052421 -0.0390322
-0.0707177 0.00533335 -0.0395608
-0.0723132 0.00542544 -0.0400842
-0.0738951 0.00551838 -0.0406014
-0.0754596 0.00561223 -0.0411112
-0.0770022 0.00570708 -0.0416122
-0.0785175 0.00580308 -0.0421027
-0.0799997 0.0059004 -0.0425812
-0.0814416 0.0059993 -0.0430457
-0.0828351 0.00610009 -0.0434939
-0.0841708 0.00620318 -0.0439234
-0.0662523 0.00527761 -0.0383556
-0.0678197 0.00536904 -0.0388896
-0.0693801 0.00546134 -0.0394197
-0.0709309 0.0055545 -0.039945
-0.072469 0.00564854 -0.0404644
-0.0739908 0.00574351 -0.0409769
-0.075492 0.00583949 -0.0414809
-0.0769675 0.00593662 -0.041975
-0.0784115 0.0060351 -0.0424574
-0.0798173 0.00613516 -0.0429262
-0.0811768 0.00623713 -0.0433791
-0.0824808 0.00634143 -0.0438136
-0.078016 -0.000958292 -0.0343683
-0.0799498 -0.00106318 -0.0349464
-0.0818671 -0.00116411 -0.0355301
-0.0837634 -0.0012605 -0.03612
-0.0856336 -0.00135173 -0.0367168
-0.087472 -0.00143717 -0.0373213
-0.0769524 -0.000972498 -0.0343728
-0.0788486 -0.00108078 -0.0349504
-0.0807291 -0.00118503 -0.0355335
-0.0825894 -0.00128464 -0.0361228
-0.0844248 -0.00137897 -0.0367189
-0.0862294 -0.00146735 -0.0373226
-0.0758554 -0.000983147 -0.0343764
-0.0777129 -0.00109474 -0.0349535
-0.0795554 -0.00120224 -0.0355361
-0.0813787 -0.00130501 -0.0361248
-0.083178 -0.00140239 -0.0367202
-0.0849479 -0.00149366 -0.0373232
-0.086682 -0.00157809 -0.0379346
-0.0883734 -0.00165494 -0.0385553
-0.090014 -0.00172348 -0.0391864
-0.0747261 -0.000990064 -0.034379
-0.0765438 -0.00110487 -0.0349557
-0.0783472 -0.00121553 -0.0355378
-0.0801324 -0.0013214 -0.0361258
-0.0818946 -0.00142177 -0.0367206
-0.0836287 -0.00151589 -0.0373228
-0.0853284 -0.001603 -0.0379334
-0.0869868 -0.00168231 -0.0385532
-0.0885961 -0.00175306 -0.0391834
-0.0735659 -0.000993064 -0.0343806
-0.0753426 -0.00111098 -0.0349568
-0.0771059 -0.00122472 -0.0355384
-0.0788519 -0.00133361 -0.0361259
-0.0805761 -0.0014369 -0.03672
-0.0822733 -0.00153383 -0.0373215
-0.0839375 -0.00162358 -0.0379313
-0.0855621 -0.00170534 -0.0385502
-0.0871391 -0.00177829 -0.0391794
-0.0723761 -0.000991958 -0.0343809
-0.0741108 -0.00111287 -0.0349568
-0.075833 -0.00122959 -0.0355379
-0.0775388 -0.00134141 -0.0361249
-0.0792238 -0.00144757 -0.0367184
-0.0808832 -0.00154725 -0.0373192
-0.082511 -0.00163962 -0.0379281
-0.0841007 -0.0017238 -0.0385461
-0.0856447 -0.00179892 -0.0391743
-0.071158 -0.000986554 -0.0343799
-0.0728499 -0.00111034 -0.0349554
-0.0745299 -0.00122993 -0.0355361
-0.0761944 -0.0013446 -0.0361227
-0.0778394 -0.00145355 -0.0367156
-0.0794599 -0.00155593 -0.0373157
-0.0810504 -0.00165087 -0.0379239
-0.0826044 -0.00173744 -0.038541
-0.0841145 -0.00181473 -0.0391682
-0.0855722 -0.00188183 -0.0398068
-0.0699132 -0.000976655 -0.0343775
-0.0715612 -0.00110318 -0.0349527
-0.0731981 -0.00122553 -0.035533
-0.0748205 -0.00134294 -0.0361191
-0.0764245 -0.0014546 -0.0367115
-0.0780052 -0.00155963 -0.037311
-0.0795574 -0.00165709 -0.0379184
-0.0810748 -0.00174603 -0.0385347
-0.0825501 -0.00182546 -0.0391609
-0.0839751 -0.00189443 -0.0397984
-0.0853403 -0.00195198 -0.0404487
-0.0670325 -0.000829511 -0.0338032
-0.0686432 -0.000962062 -0.0343734
-0.0702464 -0.00109118 -0.0349484
-0.0718393 -0.00121616 -0.0355284
-0.0734187 -0.00133621 -0.0361141
-0.0749807 -0.00145049 -0.036706
-0.0765207 -0.00155809 -0.0373049
-0.0780337 -0.00165803 -0.0379116
-0.0795136 -0.0017493 -0.038527
-0.0809534 -0.00183086 -0.0391524
-0.0823449 -0.0019017 -0.0397889
-0.0836789 -0.00196079 -0.040438
-0.0657851 -0.000807644 -0.0337975
-0.0673496 -0.000942575 -0.0343676
-0.0689073 -0.00107413 -0.0349423
-0.0704553 -0.00120159 -0.0355221
-0.0719907 -0.00132416 -0.0361075
-0.0735098 -0.00144097 -0.036699
-0.0750083 -0.00155106 -0.0372974
-0.0764813 -0.00165343 -0.0379034
-0.0779228 -0.001747 -0.0385181
-0.0793262 -0.00183067 -0.0391425
-0.0806834 -0.00190337 -0.0397779
-0.0819855 -0.00196398 -0.040426
-0.0784644 0.00390056 -0.0397932
-0.0804004 0.00397058 -0.0403129
-0.0823199 0.0040414 -0.0408255
-0.0842183 0.00411309 -0.0413298
-0.0860905 0.00418575 -0.0418246
-0.0879309 0.0042595 -0.0423087
-0.0774017 0.00404306 -0.0396868
-0.0793002 0.00411491 -0.0402077
-0.0811829 0.00418758 -0.0407217
-0.0830455 0.00426114 -0.0412278
-0.0848829 0.00433569 -0.0417246
-0.0866897 0.00441135 -0.0422109
-0.0763055 0.00418345 -0.0395765
-0.0781654 0.00425702 -0.0400987
-0.0800102 0.00433144 -0.0406142
-0.0818358 0.00440677 -0.041122
-0.0836374 0.00448311 -0.0416209
-0.0854095 0.00456059 -0.0421096
-0.0871458 0.00463937 -0.0425866
-0.0888392 0.00471964 -0.0430505
-0.0904817 0.00480167 -0.0434994
-0.0751771 0.0043216 -0.0394623
-0.0769972 0.0043968 -0.0399858
-0.0788031 0.00447286 -0.0405028
-0.0805907 0.00454985 -0.0410125
-0.0823554 0.00462788 -0.0415135
-0.0840917 0.00470707 -0.0420046
-0.0857937 0.00478759 -0.0424844
-0.0874543 0.00486963 -0.0429512
-0.0890656 0.00495348 -0.0434034
-0.0740178 0.0044574 -0.0393443
-0.0757971 0.00453411 -0.039869
-0.077563 0.00461171 -0.0403877
-0.0793115 0.00469026 -0.0408993
-0.0810381 0.00476986 -0.0414025
-0.0827378 0.00485065 -0.0418962
-0.0844044 0.00493278 -0.0423788
-0.0860313 0.00501648 -0.0428487
-0.0876106 0.00510202 -0.0433043
-0.0728289 0.00459073 -0.0392225
-0.0745663 0.00466883 -0.0397486
-0.0762911 0.00474785 -0.0402689
-0.0779995 0.00482784 -0.0407824
-0.0796872 0.0049089 -0.0412879
-0.0813492 0.00499116 -0.0417842
-0.0829795 0.0050748 -0.0422697
-0.0845717 0.00516003 -0.0427429
-0.0861181 0.00524714 -0.043202
-0.0716117 0.00472145 -0.0390969
-0.0733063 0.00480084 -0.0396243
-0.0749891 0.00488115 -0.0401463
-0.0766564 0.00496246 -0.0406618
-0.0783042 0.00504485 -0.0411697
-0.0799274 0.00512847 -0.0416686
-0.0815206 0.00521348 -0.0421572
-0.0830772 0.00530012 -0.0426338
-0.0845899 0.00538866 -0.0430965
-0.0860501 0.00547944 -0.0435436
-0.0703678 0.00484945 -0.0389676
-0.0720186 0.00492999 -0.0394964
-0.0736584 0.00501147 -0.0400201
-0.0752838 0.00509397 -0.0405377
-0.0768906 0.00517757 -0.041048
-0.0784742 0.00526241 -0.0415497
-0.0800292 0.00534866 -0.0420414
-0.0815494 0.00543657 -0.0425214
-0.0830275 0.0055264 -0.042988
-0.0844552 0.00561852 -0.0434392
-0.085823 0.00571337 -0.0438726
-0.067485 0.00489396 -0.0383006
-0.0690987 0.00497458 -0.0388347
-0.0707049 0.00505614 -0.0393649
-0.0723008 0.00513867 -0.0398903
-0.0738832 0.00522222 -0.04041
-0.0754481 0.00530689 -0.0409227
-0.0769913 0.00539281 -0.0414273
-0.0785073 0.00548017 -0.0419222
-0.0799902 0.0055692 -0.0424058
-0.0814329 0.00566018 -0.0428764
-0.0828273 0.00575348 -0.0433318
-0.084164 0.00584957 -0.0437698
-0.0662384 0.00501526 -0.038163
-0.067806 0.00509673 -0.0386981
-0.0693667 0.00517915 -0.0392297
-0.0709179 0.00526258 -0.0397569
-0.0724564 0.00534705 -0.0402787
-0.0739787 0.00543265 -0.040794
-0.0754804 0.00551952 -0.0413015
-0.0769565 0.00560784 -0.0417997
-0.0784013 0.00569783 -0.0422871
-0.0798078 0.00578981 -0.0427617
-0.0811682 0.00588413 -0.0432216
-0.0824732 0.0059813 -0.0436643
-0.0784434 0.00346928 -0.0393145
-0.078454 0.00368439 -0.0395537
-0.0803803 0.00352369 -0.0398388
-0.0803906 0.00374657 -0.0400757
-0.0823008 0.00357918 -0.0403571
-0.0823106 0.00380969 -0.0405911
-0.0842003 0.00363586 -0.0408682
-0.0842095 0.00387384 -0.0410988
-0.0860738 0.0036939 -0.0413714
-0.0860824 0.00393915 -0.0415978
-0.0879155 0.00375344 -0.0418653
-0.0879235 0.00400577 -0.0420868
-0.07738 0.00359775 -0.0392181
-0.077391 0.00381982 -0.0394523
-0.0792794 0.00365351 -0.0397434
-0.07929 0.00388358 -0.0399754
-0.0811631 0.00371037 -0.0402629
-0.0811732 0.00394831 -0.0404922
-0.0830268 0.00376847 -0.0407756
-0.0830363 0.0040141 -0.0410015
-0.0848654 0.00382793 -0.0412805
-0.0848744 0.00408107 -0.0415024
-0.0866734 0.00388895 -0.0417764
-0.0866818 0.00414937 -0.0419935
-0.0762832 0.0037246 -0.039118
-0.0762945 0.00395338 -0.0393471
-0.0781439 0.00378162 -0.0396444
-0.0781548 0.00401863 -0.0398714
-0.0799897 0.00383978 -0.0401652
-0.0800001 0.00408487 -0.0403896
-0.0818163 0.00389919 -0.0406795
-0.0818263 0.0041522 -0.0409006
-0.0836191 0.00396 -0.0411862
-0.0836285 0.00422074 -0.0414034
-0.0853924 0.00402239 -0.0416841
-0.0854012 0.00429064 -0.0418967
-0.08713 0.00408659 -0.0421722
-0.0871382 0.00436209 -0.0423793
-0.088825 0.00415284 -0.0426489
-0.0888324 0.00443532 -0.0428496
-0.0904691 0.00422144 -0.043113
-0.0904758 0.00451061 -0.0433061
-0.0751541 0.00384973 -0.0390143
-0.0751658 0.00408496 -0.0392382
-0.076975 0.00390793 -0.0395419
-0.0769863 0.00415161 -0.0397637
-0.0787818 0.00396729 -0.040064
-0.0787926 0.00421927 -0.0402833
-0.0805704 0.00402792 -0.0405799
-0.0805808 0.00428804 -0.0407961
-0.0823361 0.00408999 -0.0410884
-0.082346 0.00435804 -0.0413009
-0.0840737 0.00415367 -0.0415885
-0.084083 0.00442944 -0.0417965
-0.085777 0.00421919 -0.042079
-0.0857856 0.00450242 -0.0422816
-0.0874391 0.00428682 -0.0425584
-0.087447 0.00457722 -0.0427547
-0.089052 0.00435687 -0.0430253
-0.0890592 0.00465414 -0.0432143
-0.0739941 0.00397306 -0.038907
-0.0740061 0.00421446 -0.0391256
-0.0757741 0.00403234 -0.0394357
-0.0757857 0.0042824 -0.0396523
-0.0775408 0.00409281 -0.0399593
-0.077552 0.00435138 -0.0401735
-0.0792903 0.00415457 -0.0404768
-0.0793011 0.00442149 -0.040688
-0.081018 0.00421779 -0.0409873
-0.0810283 0.00449286 -0.0411949
-0.0827188 0.00428266 -0.0414897
-0.0827285 0.00456564 -0.0416929
-0.0843867 0.0043494 -0.0419826
-0.0843959 0.00464004 -0.0421806
-0.086015 0.0044183 -0.0424647
-0.0860235 0.0047163 -0.0426567
-0.0875959 0.00448968 -0.0429346
-0.0876036 0.00479473 -0.0431194
-0.0728044 0.00409448 -0.0387962
-0.0728167 0.00434176 -0.0390093
-0.0745425 0.00415475 -0.0393261
-0.0745545 0.0044109 -0.0395373
-0.0762681 0.00421623 -0.0398511
-0.0762798 0.00448109 -0.04006
-0.0779775 0.00427902 -0.0403704
-0.0779887 0.00455243 -0.0405763
-0.0796662 0.00434329 -0.0408829
-0.0796769 0.00462505 -0.0410854
-0.0813292 0.00440924 -0.0413875
-0.0813394 0.00469911 -0.0415858
-0.0829608 0.0044771 -0.041883
-0.0829704 0.00477481 -0.0420763
-0.0845544 0.00454716 -0.0423679
-0.0845633 0.00485241 -0.0425554
-0.0861023 0.00461975 -0.042841
-0.0861105 0.00493223 -0.0430214
-0.0715864 0.00421389 -0.0386818
-0.0715991 0.00446677 -0.0388894
-0.0732817 0.00427506 -0.0392129
-0.0732941 0.00453698 -0.0394186
-0.0749652 0.00433744 -0.0397394
-0.0749773 0.00460827 -0.0399429
-0.0766334 0.00440116 -0.0402604
-0.0766451 0.00468073 -0.0404612
-0.0782821 0.00446638 -0.040775
-0.0782933 0.00475448 -0.0409724
-0.0799064 0.00453329 -0.041282
-0.0799171 0.0048297 -0.0414754
-0.0815008 0.00460215 -0.0417802