# vtk DataFile Version 3.0
Generated by Jean Bénézech
ASCII
DATASET UNSTRUCTURED_GRID
POINTS 3883 double
56.19 128.4 312
56.29 128.482 310
56.39 128.563 308
56.49 128.645 306
56.59 128.727 304
56.69 128.808 302
56.09 127.12 314
56.79 127.679 300
56.89 127.759 298
56.99 127.839 296
56.09 125.922 314
57.09 126.702 294
55.99 124.648 316
57.09 125.485 294
55.99 123.451 316
57.19 124.343 292
55.99 122.255 316
57.19 123.125 292
55.99 121.059 316
57.19 121.906 292
55.99 119.862 316
57.19 120.688 292
55.99 118.666 316
57.09 119.403 294
55.99 117.47 316
57.09 118.186 294
56.09 116.337 314
57.09 116.97 294
56.19 115.2 312
56.29 115.261 310
56.39 115.323 308
56.49 115.384 306
56.59 115.446 304
56.69 115.507 302
56.79 115.569 300
56.89 115.63 298
56.99 115.692 296
55.94 128.4 312
56.04 128.482 310
56.14 128.563 308
56.24 128.645 306
56.34 128.727 304
56.44 128.808 302
55.84 127.12 314
56.54 127.679 300
56.64 127.759 298
56.74 127.839 296
55.84 125.922 314
56.84 126.702 294
55.74 124.648 316
56.84 125.485 294
55.74 123.451 316
56.94 124.343 292
55.74 122.255 316
56.94 123.125 292
55.74 121.059 316
56.94 121.906 292
55.74 119.862 316
56.94 120.688 292
55.74 118.666 316
56.84 119.403 294
55.74 117.47 316
56.84 118.186 294
55.84 116.337 314
56.84 116.97 294
55.94 115.2 312
56.04 115.261 310
56.14 115.323 308
56.24 115.384 306
56.34 115.446 304
56.44 115.507 302
56.54 115.569 300
56.64 115.63 298
56.74 115.692 296
55.69 128.4 312
55.79 128.482 310
55.89 128.563 308
55.99 128.645 306
56.09 128.727 304
56.19 128.808 302
55.59 127.12 314
56.29 127.679 300
56.39 127.759 298
56.49 127.839 296
55.59 125.922 314
56.59 126.702 294
55.49 124.648 316
56.59 125.485 294
55.49 123.451 316
56.69 124.343 292
55.49 122.255 316
56.69 123.125 292
55.49 121.059 316
56.69 121.906 292
55.49 119.862 316
56.69 120.688 292
55.49 118.666 316
56.59 119.403 294
55.49 117.47 316
56.59 118.186 294
55.59 116.337 314
56.59 116.97 294
55.69 115.2 312
55.79 115.261 310
55.89 115.323 308
55.99 115.384 306
56.09 115.446 304
56.19 115.507 302
56.29 115.569 300
56.39 115.63 298
56.49 115.692 296
55.68 128.4 312
55.78 128.482 310
55.88 128.563 308
55.98 128.645 306
56.08 128.727 304
56.18 128.808 302
55.58 127.12 314
56.28 127.679 300
56.38 127.759 298
56.48 127.839 296
55.58 125.922 314
56.58 126.702 294
55.48 124.648 316
56.58 125.485 294
55.48 123.451 316
56.68 124.343 292
55.48 122.255 316
56.68 123.125 292
55.48 121.059 316
56.68 121.906 292
55.48 119.862 316
56.68 120.688 292
55.48 118.666 316
56.58 119.403 294
55.48 117.47 316
56.58 118.186 294
55.58 116.337 314
56.58 116.97 294
55.68 115.2 312
55.78 115.261 310
55.88 115.323 308
55.98 115.384 306
56.08 115.446 304
56.18 115.507 302
56.28 115.569 300
56.38 115.63 298
56.48 115.692 296
55.43 128.4 312
55.53 128.482 310
55.63 128.563 308
55.73 128.645 306
55.83 128.727 304
55.93 128.808 302
55.33 127.12 314
56.03 127.679 300
56.13 127.759 298
56.23 127.839 296
55.33 125.922 314
56.33 126.702 294
55.23 124.648 316
56.33 125.485 294
55.23 123.451 316
56.43 124.343 292
55.23 122.255 316
56.43 123.125 292
55.23 121.059 316
56.43 121.906 292
55.23 119.862 316
56.43 120.688 292
55.23 118.666 316
56.33 119.403 294
55.23 117.47 316
56.33 118.186 294
55.33 116.337 314
56.33 116.97 294
55.43 115.2 312
55.53 115.261 310
55.63 115.323 308
55.73 115.384 306
55.83 115.446 304
55.93 115.507 302
56.03 115.569 300
56.13 115.63 298
56.23 115.692 296
55.42 128.4 312
55.52 128.482 310
55.62 128.563 308
55.72 128.645 306
55.82 128.727 304
55.92 128.808 302
55.32 127.12 314
56.02 127.679 300
56.12 127.759 298
56.22 127.839 296
55.32 125.922 314
56.32 126.702 294
55.22 124.648 316
56.32 125.485 294
55.22 123.451 316
56.42 124.343 292
55.22 122.255 316
56.42 123.125 292
55.22 121.059 316
56.42 121.906 292
55.22 119.862 316
56.42 120.688 292
55.22 118.666 316
56.32 119.403 294
55.22 117.47 316
56.32 118.186 294
55.32 116.337 314
56.32 116.97 294
55.42 115.2 312
55.52 115.261 310
55.62 115.323 308
55.72 115.384 306
55.82 115.446 304
55.92 115.507 302
56.02 115.569 300
56.12 115.63 298
56.22 115.692 296
55.17 128.4 312
55.27 128.482 310
55.37 128.563 308
55.47 128.645 306
55.57 128.727 304
55.67 128.808 302
55.07 127.12 314
55.77 127.679 300
55.87 127.759 298
55.97 127.839 296
55.07 125.922 314
56.07 126.702 294
54.97 124.648 316
56.07 125.485 294
54.97 123.451 316
56.17 124.343 292
54.97 122.255 316
56.17 123.125 292
54.97 121.059 316
56.17 121.906 292
54.97 119.862 316
56.17 120.688 292
54.97 118.666 316
56.07 119.403 294
54.97 117.47 316
56.07 118.186 294
55.07 116.337 314
56.07 116.97 294
55.17 115.2 312
55.27 115.261 310
55.37 115.323 308
55.47 115.384 306
55.57 115.446 304
55.67 115.507 302
55.77 115.569 300
55.87 115.63 298
55.97 115.692 296
54.92 128.4 312
55.02 128.482 310
55.12 128.563 308
55.22 128.645 306
55.32 128.727 304
55.42 128.808 302
54.82 127.12 314
55.52 127.679 300
55.62 127.759 298
55.72 127.839 296
54.82 125.922 314
55.82 126.702 294
54.72 124.648 316
55.82 125.485 294
54.72 123.451 316
55.92 124.343 292
54.72 122.255 316
55.92 123.125 292
54.72 121.059 316
55.92 121.906 292
54.72 119.862 316
55.92 120.688 292
54.72 118.666 316
55.82 119.403 294
54.72 117.47 316
55.82 118.186 294
54.82 116.337 314
55.82 116.97 294
54.92 115.2 312
55.02 115.261 310
55.12 115.323 308
55.22 115.384 306
55.32 115.446 304
55.42 115.507 302
55.52 115.569 300
55.62 115.63 298
55.72 115.692 296
54.67 128.4 312
54.77 128.482 310
54.87 128.563 308
54.97 128.645 306
55.07 128.727 304
55.17 128.808 302
54.57 127.12 314
55.27 127.679 300
55.37 127.759 298
55.47 127.839 296
54.57 125.922 314
55.57 126.702 294
54.47 124.648 316
55.57 125.485 294
54.47 123.451 316
55.67 124.343 292
54.47 122.255 316
55.67 123.125 292
54.47 121.059 316
55.67 121.906 292
54.47 119.862 316
55.67 120.688 292
54.47 118.666 316
55.57 119.403 294
54.47 117.47 316
55.57 118.186 294
54.57 116.337 314
55.57 116.97 294
54.67 115.2 312
54.77 115.261 310
54.87 115.323 308
54.97 115.384 306
55.07 115.446 304
55.17 115.507 302
55.27 115.569 300
55.37 115.63 298
55.47 115.692 296
54.42 128.4 312
54.52 128.482 310
54.62 128.563 308
54.72 128.645 306
54.82 128.727 304
54.92 128.808 302
54.32 127.12 314
55.02 127.679 300
55.12 127.759 298
55.22 127.839 296
54.32 125.922 314
55.32 126.702 294
54.22 124.648 316
55.32 125.485 294
54.22 123.451 316
55.42 124.343 292
54.22 122.255 316
55.42 123.125 292
54.22 121.059 316
55.42 121.906 292
54.22 119.862 316
55.42 120.688 292
54.22 118.666 316
55.32 119.403 294
54.22 117.47 316
55.32 118.186 294
54.32 116.337 314
55.32 116.97 294
54.42 115.2 312
54.52 115.261 310
54.62 115.323 308
54.72 115.384 306
54.82 115.446 304
54.92 115.507 302
55.02 115.569 300
55.12 115.63 298
55.22 115.692 296
54.17 128.4 312
54.27 128.482 310
54.37 128.563 308
54.47 128.645 306
54.57 128.727 304
54.67 128.808 302
54.07 127.12 314
54.77 127.679 300
54.87 127.759 298
54.97 127.839 296
54.07 125.922 314
55.07 126.702 294
53.97 124.648 316
55.07 125.485 294
53.97 123.451 316
55.17 124.343 292
53.97 122.255 316
55.17 123.125 292
53.97 121.059 316
55.17 121.906 292
53.97 119.862 316
55.17 120.688 292
53.97 118.666 316
55.07 119.403 294
53.97 117.47 316
55.07 118.186 294
54.07 116.337 314
55.07 116.97 294
54.17 115.2 312
54.27 115.261 310
54.37 115.323 308
54.47 115.384 306
54.57 115.446 304
54.67 115.507 302
54.77 115.569 300
54.87 115.63 298
54.97 115.692 296
53.92 128.4 312
54.02 128.482 310
54.12 128.563 308
54.22 128.645 306
54.32 128.727 304
54.42 128.808 302
53.82 127.12 314
54.52 127.679 300
54.62 127.759 298
54.72 127.839 296
53.82 125.922 314
54.82 126.702 294
53.72 124.648 316
54.82 125.485 294
53.72 123.451 316
54.92 124.343 292
53.72 122.255 316
54.92 123.125 292
53.72 121.059 316
54.92 121.906 292
53.72 119.862 316
54.92 120.688 292
53.72 118.666 316
54.82 119.403 294
53.72 117.47 316
54.82 118.186 294
53.82 116.337 314
54.82 116.97 294
53.92 115.2 312
54.02 115.261 310
54.12 115.323 308
54.22 115.384 306
54.32 115.446 304
54.42 115.507 302
54.52 115.569 300
54.62 115.63 298
54.72 115.692 296
53.67 128.4 312
53.77 128.482 310
53.87 128.563 308
53.97 128.645 306
54.07 128.727 304
54.17 128.808 302
53.57 127.12 314
54.27 127.679 300
54.37 127.759 298
54.47 127.839 296
53.57 125.922 314
54.57 126.702 294
53.47 124.648 316
54.57 125.485 294
53.47 123.451 316
54.67 124.343 292
53.47 122.255 316
54.67 123.125 292
53.47 121.059 316
54.67 121.906 292
53.47 119.862 316
54.67 120.688 292
53.47 118.666 316
54.57 119.403 294
53.47 117.47 316
54.57 118.186 294
53.57 116.337 314
54.57 116.97 294
53.67 115.2 312
53.77 115.261 310
53.87 115.323 308
53.97 115.384 306
54.07 115.446 304
54.17 115.507 302
54.27 115.569 300
54.37 115.63 298
54.47 115.692 296
53.66 128.4 312
53.76 128.482 310
53.86 128.563 308
53.96 128.645 306
54.06 128.727 304
54.16 128.808 302
53.56 127.12 314
54.26 127.679 300
54.36 127.759 298
54.46 127.839 296
53.56 125.922 314
54.56 126.702 294
53.46 124.648 316
54.56 125.485 294
53.46 123.451 316
54.66 124.343 292
53.46 122.255 316
54.66 123.125 292
53.46 121.059 316
54.66 121.906 292
53.46 119.862 316
54.66 120.688 292
53.46 118.666 316
54.56 119.403 294
53.46 117.47 316
54.56 118.186 294
53.56 116.337 314
54.56 116.97 294
53.66 115.2 312
53.76 115.261 310
53.86 115.323 308
53.96 115.384 306
54.06 115.446 304
54.16 115.507 302
54.26 115.569 300
54.36 115.63 298
54.46 115.692 296
53.41 128.4 312
53.51 128.482 310
53.61 128.563 308
53.71 128.645 306
53.81 128.727 304
53.91 128.808 302
53.31 127.12 314
54.01 127.679 300
54.11 127.759 298
54.21 127.839 296
53.31 125.922 314
54.31 126.702 294
53.21 124.648 316
54.31 125.485 294
53.21 123.451 316
54.41 124.343 292
53.21 122.255 316
54.41 123.125 292
53.21 121.059 316
54.41 121.906 292
53.21 119.862 316
54.41 120.688 292
53.21 118.666 316
54.31 119.403 294
53.21 117.47 316
54.31 118.186 294
53.31 116.337 314
54.31 116.97 294
53.41 115.2 312
53.51 115.261 310
53.61 115.323 308
53.71 115.384 306
53.81 115.446 304
53.91 115.507 302
54.01 115.569 300
54.11 115.63 298
54.21 115.692 296
53.16 128.4 312
[...]
POINT_DATA 3883
SCALARS DISPLACEMENT double 3
LOOKUP_TABLE default
0 0 0
0 0 0
0 0 0
0 0 0
0 0 0
0 0 0
0 0 0
0 0 0
0 0 0
0 0 0
0 0 0
0 0 0
0 0 0
0 0 0
0 0 0
0 0 0
0 0 0
0 0 0
0 0 0
0 0 0
0 0 0
0 0 0
0 0 0
0 0 0
0 0 0
0 0 0
0 0 0
0 0 0
0 0 0
0 0 0
0 0 0
0 0 0
0 0 0
0 0 0
0 0 0
0 0 0
0 0 0
0 0 0
0 0 0
0 0 0
0 0 0
0 0 0
0 0 0
0 0 0
0 0 0
0 0 0
0 0 0
0 0 0
0 0 0
0 0 0
0 0 0
0 0 0
0 0 0
0 0 0
0 0 0
0 0 0
0 0 0
0 0 0
0 0 0
0 0 0
0 0 0
0 0 0
0 0 0
0 0 0
0 0 0
0 0 0
0 0 0
0 0 0
0 0 0
0 0 0
0 0 0
0 0 0
0 0 0
0 0 0
0 0 0
0 0 0
0 0 0
0 0 0
0 0 0
0 0 0
0 0 0
0 0 0
0 0 0
0 0 0
0 0 0
0 0 0
0 0 0
0 0 0
0 0 0
0 0 0
0 0 0
0 0 0
0 0 0
0 0 0
0 0 0
0 0 0
0 0 0
0 0 0
0 0 0
0 0 0
0 0 0
0 0 0
0 0 0
0 0 0
0 0 0
0 0 0
0 0 0
0 0 0
0 0 0
0 0 0
0 0 0
0 0 0
0 0 0
0 0 0
0 0 0
0 0 0
0 0 0
0 0 0
0 0 0
0 0 0
0 0 0
0 0 0
0 0 0
0 0 0
0 0 0
0 0 0
0 0 0
0 0 0
0 0 0
0 0 0
0 0 0
0 0 0
0 0 0
0 0 0
0 0 0
0 0 0
0 0 0
0 0 0
0 0 0
0 0 0
0 0 0
0 0 0
0 0 0
0 0 0
0 0 0
0 0 0
0 0 0
0 0 0
0 0 0
0 0 0
0 0 0
0 0 0
0 0 0
0 0 0
0 0 0
0 0 0
0 0 0
0 0 0
0 0 0
0 0 0
0 0 0
0 0 0
0 0 0
0 0 0
0 0 0
0 0 0
0 0 0
0 0 0
0 0 0
0 0 0
0 0 0
0 0 0
0 0 0
0 0 0
0 0 0
0 0 0
0 0 0
0 0 0
0 0 0
0 0 0
0 0 0
0 0 0
0 0 0
0 0 0
0 0 0
0 0 0
0 0 0
0 0 0
0 0 0
0 0 0
0 0 0
0 0 0
0 0 0
0 0 0
0 0 0
0 0 0
0 0 0
0 0 0
0 0 0
0 0 0
0 0 0
0 0 0
0 0 0
0 0 0
0 0 0
0 0 0
0 0 0
0 0 0
0 0 0
0 0 0
0 0 0
0 0 0
0 0 0
0 0 0
0 0 0
0 0 0
0 0 0
0 0 0
0 0 0
0 0 0
0 0 0
0 0 0
0 0 0
0 0 0
0 0 0
0 0 0
0 0 0
0 0 0
0 0 0
0 0 0
0 0 0
0 0 0
0 0 0
0 0 0
0 0 0
0 0 0
0 0 0
0 0 0
0 0 0
0 0 0
0 0 0
0 0 0
0 0 0
0 0 0
0 0 0
0 0 0
0 0 0
0 0 0
0 0 0
0 0 0
0 0 0
0 0 0
0 0 0
0 0 0
0 0 0
0 0 0
0 0 0
0 0 0
0 0 0
0 0 0
0 0 0
0 0 0
0 0 0
0 0 0
0 0 0
0 0 0
0 0 0
0 0 0
0 0 0
0 0 0
0 0 0
0 0 0
0 0 0
0 0 0
0 0 0
0 0 0
0 0 0
0 0 0
0 0 0
0 0 0
0 0 0
0 0 0
0 0 0
0 0 0
0 0 0
0 0 0
0 0 0
0 0 0
0 0 0
0 0 0
0 0 0
0 0 0
0 0 0
0 0 0
0 0 0
0 0 0
0 0 0
0 0 0
0 0 0
0 0 0
0 0 0
0 0 0
0 0 0
0 0 0
0 0 0
0 0 0
0 0 0
0 0 0
0 0 0
0 0 0
0 0 0
0 0 0
0 0 0
0 0 0
0 0 0
0 0 0
0 0 0
0 0 0
0 0 0
0 0 0
0 0 0
0 0 0
0 0 0
0 0 0
0 0 0
0 0 0
0 0 0
0 0 0
0 0 0
0 0 0
0 0 0
0 0 0
0 0 0
0 0 0
0 0 0
0 0 0
0 0 0
0 0 0
0 0 0
0 0 0
0 0 0
0 0 0
0 0 0
0 0 0
0 0 0
0 0 0
0 0 0
0 0 0
0 0 0
0 0 0
0 0 0
0 0 0
0 0 0
0 0 0
0 0 0
0 0 0
0 0 0
0 0 0
0 0 0
0 0 0
0 0 0
0 0 0
0 0 0
0 0 0
0 0 0
0 0 0
0 0 0
0 0 0
0 0 0
0 0 0
0 0 0
0 0 0
0 0 0
0 0 0
0 0 0
0 0 0
0 0 0
0 0 0
0 0 0
0 0 0
0 0 0
0 0 0
0 0 0
0 0 0
0 0 0
0 0 0
0 0 0
0 0 0
0 0 0
0 0 0
0 0 0
0 0 0
0 0 0
0 0 0
0 0 0
0 0 0
0 0 0
0 0 0
0 0 0
0 0 0
0 0 0
0 0 0
0 0 0
0 0 0
0 0 0
0 0 0
0 0 0
0 0 0
0 0 0
0 0 0
0 0 0
0 0 0
0 0 0
0 0 0
0 0 0
0 0 0
0 0 0
0 0 0
0 0 0
0 0 0
0 0 0
0 0 0
0 0 0
0 0 0
0 0 0
0 0 0
0 0 0
0 0 0
0 0 0
0 0 0
0 0 0
0 0 0
0 0 0
0 0 0
0 0 0
0 0 0
0 0 0
0 0 0
0 0 0
0 0 0
0 0 0
0 0 0
0 0 0
0 0 0
0 0 0
0 0 0
0 0 0
0 0 0
0 0 0
0 0 0
0 0 0
0 0 0
0 0 0
0 0 0
0 0 0
0 0 0
0 0 0
0 0 0
0 0 0
0 0 0
0 0 0
0 0 0
0 0 0
0 0 0
0 0 0
0 0 0
0 0 0
0 0 0
0 0 0
0 0 0
0 0 0
0 0 0
0 0 0
0 0 0
0 0 0
0 0 0
0 0 0
0 0 0
0 0 0
0 0 0
0 0 0
0 0 0
0 0 0
0 0 0
0 0 0
0 0 0
0 0 0
0 0 0
0 0 0
0 0 0
0 0 0
0 0 0
0 0 0
0 0 0
0 0 0
0 0 0
0 0 0
0 0 0
0 0 0
0 0 0
0 0 0
0 0 0
0 0 0
0 0 0
0 0 0
0 0 0
0 0 0
0 0 0
0 0 0
0 0 0
0 0 0
0 0 0
0 0 0
0 0 0
0 0 0
0 0 0
0 0 0
0 0 0
0 0 0
0 0 0
0 0 0
0 0 0
0 0 0
0 0 0
0 0 0
0 0 0
0 0 0
0 0 0
0 0 0
0 0 0
0 0 0
0 0 0
0 0 0
0 0 0
0 0 0
0 0 0
0 0 0
0 0 0
0 0 0
0 0 0
0 0 0
0 0 0
0 0 0
0 0 0
0 0 0
0 0 0
0 0 0
0 0 0
0 0 0
0 0 0
0 0 0
0 0 0
0 0 0
0 0 0
0 0 0
0 0 0
0 0 0
0 0 0
0 0 0
0 0 0
0 0 0
0 0 0
0 0 0
0 0 0
0 0 0
0 0 0
0 0 0
0 0 0
0 0 0
0 0 0
0 0 0
0 0 0
0 0 0
0 0 0
0 0 0
0 0 0
0 0 0
0 0 0
0 0 0
0 0 0
0 0 0
0 0 0
0 0 0
0 0 0
0 0 0
0 0 0
0 0 0
0 0 0
0 0 0
0 0 0
0 0 0
0 0 0
0 0 0
0 0 0
0 0 0
0 0 0
0 0 0
0 0 0
0 0 0
0 0 0
0 0 0
0 0 0
0 0 0
0 0 0
0 0 0
0 0 0
0 0 0
0 0 0
0 0 0
0 0 0
0 0 0
0 0 0
0 0 0
0 0 0
0 0 0
0 0 0
0 0 0
0 0 0
0 0 0
0 0 0
0 0 0
0 0 0
0 0 0
0 0 0
0 0 0
0 0 0
0 0 0
0 0 0
0 0 0
0 0 0
0 0 0
0 0 0
0 0 0
0 0 0
0 0 0
0 0 0
0 0 0
0 0 0
0 0 0
0 0 0
0 0 0
0 0 0
0 0 0
0 0 0
0 0 0
0 0 0
0 0 0
0 0 0
0 0 0
0 0 0
0 0 0
0 0 0
0 0 0
0 0 0
0 0 0
0 0 0
0 0 0
0 0 0
0 0 0
0 0 0
0 0 0
0 0 0
0 0 0
0 0 0
0 0 0
0 0 0
0 0 0
0 0 0
0 0 0
0 0 0
0 0 0
0 0 0
0 0 0
0 0 0
0 0 0
0 0 0
0 0 0
0 0 0
0 0 0
0 0 0
0 0 0
0 0 0
0 0 0
0 0 0
0 0 0
0 0 0
0 0 0
0 0 0
0 0 0
0 0 0
0 0 0
0 0 0
0 0 0
0 0 0
0 0 0
0 0 0
0 0 0
0 0 0
0 0 0
0 0 0
0 0 0
0 0 0
0 0 0
0 0 0
0 0 0
0 0 0
0 0 0
0 0 0
0 0 0
0 0 0
0 0 0
0 0 0
0 0 0
0 0 0
0 0 0
0 0 0
0 0 0
0 0 0
0 0 0
0 0 0
0 0 0
0 0 0
0 0 0
0 0 0
0 0 0
0 0 0
0 0 0
0 0 0
0 0 0
0 0 0
0 0 0
0 0 0
0 0 0
0 0 0
0 0 0
0 0 0
0 0 0
0 0 0
0 0 0
0 0 0
0 0 0
0 0 0
0 0 0
0 0 0
0 0 0
0 0 0
0 0 0
0 0 0
0 0 0
0 0 0
0 0 0
0 0 0
0 0 0
0 0 0
0 0 0
0 0 0
0 0 0
0 0 0
0 0 0
0 0 0
0 0 0
0 0 0
0 0 0
0 0 0
0 0 0
0 0 0
0 0 0
0 0 0
0 0 0
0 0 0
0 0 0
0 0 0
0 0 0
0 0 0
0 0 0
0 0 0
0 0 0
0 0 0
0 0 0
0 0 0
0 0 0
0 0 0
0 0 0
0 0 0
0 0 0
0 0 0
0 0 0
0 0 0
0 0 0
0 0 0
0 0 0
0 0 0
0 0 0
0 0 0
0 0 0
0 0 0
0 0 0
0 0 0
0 0 0
0 0 0
0 0 0
0 0 0
0 0 0
0 0 0
0 0 0
0 0 0
0 0 0
0 0 0
0 0 0
0 0 0
0 0 0
0 0 0
0 0 0
0 0 0
0 0 0
0 0 0
0 0 0
0 0 0
0 0 0
0 0 0
0 0 0
0 0 0
0 0 0
0 0 0
0 0 0
0 0 0
0 0 0
0 0 0
0 0 0
0 0 0
0 0 0
0 0 0
0 0 0
0 0 0
0 0 0
0 0 0
0 0 0
0 0 0
0 0 0
0 0 0
0 0 0
0 0 0
0 0 0
0 0 0
0 0 0
0 0 0
0 0 0
0 0 0
0 0 0
0 0 0
0 0 0
0 0 0
0 0 0
0 0 0
0 0 0
0 0 0
0 0 0
0 0 0
0 0 0
0 0 0
0 0 0
0 0 0
0 0 0
0 0 0
0 0 0
0 0 0
0 0 0
0 0 0
0 0 0
0 0 0
0 0 0
0 0 0
0 0 0
0 0 0
0 0 0
0 0 0
0 0 0
0 0 0
0 0 0
0 0 0
0 0 0
0 0 0
0 0 0
0 0 0
0 0 0
0 0 0
0 0 0
0 0 0
0 0 0
0 0 0
0 0 0
0 0 0
0 0 0
0 0 0
0 0 0
0 0 0
0 0 0
0 0 0
0 0 0
0 0 0
0 0 0
0 0 0
0 0 0
0 0 0
0 0 0
0 0 0
0 0 0
0 0 0
0 0 0
0 0 0
0 0 0
0 0 0
0 0 0
0 0 0
0 0 0
0 0 0
0 0 0
0 0 0
0 0 0
0 0 0
0 0 0
0 0 0
0 0 0
0 0 0
0 0 0
0 0 0
0 0 0
0 0 0
0 0 0
0 0 0
0 0 0
0 0 0
0 0 0
0 0 0
0 0 0
0 0 0
0 0 0
0 0 0
0 0 0
0 0 0
0 0 0
0 0 0
0 0 0
0 0 0
0 0 0
0 0 0
0 0 0
0 0 0
0 0 0
0 0 0
0 0 0
0 0 0
0 0 0
0 0 0
0 0 0
0 0 0
0 0 0
0 0 0
0 0 0
0 0 0
0 0 0
0 0 0
0 0 0
0 0 0
0 0 0
0 0 0
0 0 0
0 0 0
0 0 0
0 0 0
0 0 0
0 0 0
0 0 0
0 0 0
0 0 0
0 0 0
0 0 0
0 0 0
0 0 0
0 0 0
0 0 0
0 0 0
0 0 0
0 0 0
0 0 0
0 0 0
0 0 0
0 0 0
0 0 0
0 0 0
0 0 0
0 0 0
0 0 0
0 0 0
0 0 0
0 0 0
0 0 0
0 0 0
0 0 0
0 0 0
0 0 0
0 0 0
0 0 0
0 0 0
0 0 0
0 0 0
0 0 0
0 0 0
0 0 0
0 0 0
0 0 0
0 0 0
0 0 0
0 0 0
0 0 0
0 0 0
0 0 0
0 0 0
0 0 0
0 0 0
0 0 0
0 0 0
0 0 0
0 0 0
0 0 0
0 0 0
0 0 0
0 0 0
0 0 0
0 0 0
0 0 0
0 0 0
0 0 0
0 0 0
0 0 0
0 0 0
0 0 0
0 0 0
0 0 0
0 0 0
0 0 0
0 0 0
0 0 0
0 0 0
0 0 0
0 0 0
0 0 0
0 0 0
0 0 0
0 0 0
0 0 0
0 0 0
0 0 0
0 0 0
0 0 0
0 0 0
0 0 0
0 0 0
0 0 0
0 0 0
0 0 0
0 0 0
0 0 0
0 0 0
0 0 0
0 0 0
0 0 0
0 0 0
0 0 0
0 0 0
0 0 0
0 0 0
0 0 0
-0.256622 0.0187678 -0.131256
-0.263421 0.0191352 -0.133459
-0.270233 0.0195068 -0.135664
-0.277057 0.0198826 -0.137872
-0.283891 0.0202628 -0.14008
-0.290731 0.0206472 -0.142287
-0.297573 0.0210359 -0.144493
-0.304414 0.021429 -0.146695
-0.311248 0.0218265 -0.148891
-0.318069 0.0222282 -0.15108
-0.25301 0.0192439 -0.130614
-0.2596 0.0196126 -0.132812
-0.266202 0.0199856 -0.135012
-0.272817 0.0203629 -0.137215
-0.279439 0.0207447 -0.13942
-0.286068 0.0211309 -0.141625
-0.292699 0.0215217 -0.143829
-0.299329 0.0219169 -0.14603
-0.305953 0.0223166 -0.148227
-0.312564 0.0227208 -0.150418
-0.249334 0.019713 -0.129959
-0.255713 0.0200821 -0.13215
-0.262105 0.0204556 -0.134346
-0.268507 0.0208336 -0.136545
-0.274918 0.0212162 -0.138746
-0.281334 0.0216034 -0.140948
-0.287752 0.0219952 -0.14315
-0.294168 0.0223918 -0.145351
-0.300579 0.022793 -0.147549
-0.306979 0.0231988 -0.149741
-0.245598 0.0201747 -0.12929
-0.251766 0.0205434 -0.131475
-0.257946 0.0209166 -0.133666
-0.264135 0.0212944 -0.13586
-0.270332 0.0216769 -0.138057
-0.276533 0.0220641 -0.140257
-0.282737 0.0224562 -0.142458
-0.288938 0.0228531 -0.144658
-0.295135 0.0232549 -0.146856
-0.301321 0.0236616 -0.14905
-0.241806 0.0206289 -0.128608
-0.247763 0.0209963 -0.130787
-0.25373 0.0213682 -0.132972
-0.259705 0.0217449 -0.135162
-0.265687 0.0221264 -0.137356
-0.271673 0.0225128 -0.139552
-0.27766 0.0229041 -0.141751
-0.283646 0.0233006 -0.143951
-0.289627 0.0237021 -0.146149
-0.295597 0.0241086 -0.148345
-0.237963 0.0210754 -0.127913
-0.243707 0.0214405 -0.130086
-0.249461 0.0218102 -0.132266
-0.255222 0.0221848 -0.134451
-0.260989 0.0225643 -0.136641
-0.266759 0.0229489 -0.138835
-0.27253 0.0233386 -0.141032
-0.278299 0.0237335 -0.14323
-0.284062 0.0241337 -0.145429
-0.289816 0.0245392 -0.147626
-0.234071 0.021514 -0.127206
-0.239604 0.0218758 -0.129373
-0.245145 0.0222423 -0.131548
-0.250692 0.0226138 -0.133728
-0.256244 0.0229903 -0.135914
-0.261798 0.0233721 -0.138105
-0.267352 0.0237591 -0.140299
-0.272904 0.0241516 -0.142497
-0.27845 0.0245495 -0.144696
-0.283985 0.0249529 -0.146895
-0.230136 0.0219445 -0.126488
-0.235458 0.0223019 -0.128649
-0.240787 0.0226643 -0.130818
-0.246121 0.0230316 -0.132993
-0.251458 0.0234041 -0.135175
-0.256797 0.023782 -0.137363
-0.262134 0.0241653 -0.139555
-0.267469 0.0245542 -0.141751
-0.272797 0.0249488 -0.14395
-0.241514 0.0234379 -0.132247
-0.246637 0.0238054 -0.134425
-0.251762 0.0241783 -0.136609
-0.256884 0.0245568 -0.138799
-0.262001 0.0249411 -0.140994
-0.267112 0.0253312 -0.143193
-0.254905 0.00141891 -0.111005
-0.261695 0.000785654 -0.11321
-0.268498 0.000151086 -0.115425
-0.275313 -0.00048398 -0.117652
-0.282138 -0.00111857 -0.119891
-0.288969 -0.00175156 -0.122143
-0.295802 -0.00238166 -0.124408
-0.302634 -0.00300741 -0.126687
-0.30946 -0.00362709 -0.128981
-0.316272 -0.00423875 -0.13129
-0.251291 0.00157545 -0.110978
-0.257871 0.000936308 -0.11318
-0.264464 0.000295648 -0.115393
-0.271069 -0.000345758 -0.117618
-0.277683 -0.000986968 -0.119855
-0.284302 -0.00162689 -0.122106
-0.290924 -0.00226427 -0.124369
-0.297545 -0.00289764 -0.126647
-0.304159 -0.00352533 -0.12894
-0.310762 -0.00414539 -0.131249
-0.241257 0.00238444 -0.108752
-0.247613 0.00174309 -0.11094
-0.253982 0.00109923 -0.113139
-0.260364 0.000453637 -0.11535
-0.266757 -0.000192957 -0.117573
-0.273158 -0.000839643 -0.119809
-0.279564 -0.00148537 -0.122058
-0.285972 -0.00212889 -0.12432
-0.29238 -0.0027688 -0.126597
-0.298781 -0.00340343 -0.128889
-0.305171 -0.00403089 -0.131197
-0.237729 0.00256668 -0.108705
-0.243875 0.001922 -0.11089
-0.250033 0.00127467 -0.113086
-0.256202 0.000625358 -0.115295
-0.262381 -2.52153e-05 -0.117516
-0.268568 -0.000676175 -0.11975
-0.27476 -0.0013265 -0.121998
-0.280953 -0.001975 -0.12426
-0.287145 -0.00262028 -0.126536
-0.293332 -0.00326073 -0.128828
-0.299508 -0.00389449 -0.131135
-0.234146 0.00275919 -0.108645
-0.240081 0.00211243 -0.110827
-0.246027 0.00146287 -0.113021
-0.251983 0.000811096 -0.115227
-0.257948 0.000157806 -0.117447
-0.26392 -0.000496166 -0.11968
-0.269896 -0.00114984 -0.121926
-0.275873 -0.00180207 -0.124187
-0.281848 -0.0024515 -0.126463
-0.287818 -0.00309656 -0.128754
-0.293778 -0.00373545 -0.131062
-0.230512 0.00296204 -0.108572
-0.236235 0.0023145 -0.110751
-0.241969 0.00166403 -0.112942
-0.247712 0.00101111 -0.115147
-0.253462 0.000356421 -0.117364
-0.259219 -0.000299246 -0.119595
-0.264978 -0.000954951 -0.121841
-0.270738 -0.00160959 -0.124101
-0.276497 -0.00226187 -0.126376
-0.282249 -0.00291027 -0.128668
-0.287992 -0.00355303 -0.130976
-0.232342 0.00252839 -0.110661
-0.237864 0.00187834 -0.112849
-0.243394 0.00122564 -0.115051
-0.24893 0.000570918 -0.117267
-0.25447 -8.50683e-05 -0.119497
-0.260014 -0.000741426 -0.121742
-0.265557 -0.0013971 -0.124001
-0.271097 -0.00205086 -0.126276
-0.276632 -0.00270126 -0.128568
-0.282156 -0.00334653 -0.130876
-0.228405 0.00275418 -0.110555
-0.233716 0.00210593 -0.112741
-0.239033 0.00145486 -0.114941
-0.244356 0.000801542 -0.117155
-0.249681 0.000146678 -0.119384
-0.255009 -0.00050889 -0.121627
-0.260335 -0.00116415 -0.123886
-0.265658 -0.00181793 -0.126161
-0.270974 -0.00246887 -0.128453
-0.239746 0.00104855 -0.117027
-0.244858 0.000396284 -0.119255
-0.24997 -0.00025701 -0.121497
-0.25508 -0.000910337 -0.123756
-0.260186 -0.00156263 -0.126031
-0.265284 -0.00221256 -0.128323
-0.256565 0.0180275 -0.130407
-0.263364 0.0183513 -0.13261
-0.270177 0.018679 -0.134816
-0.277001 0.0190107 -0.137024
-0.283835 0.0193465 -0.139232
-0.290676 0.0196865 -0.141441
-0.297519 0.0200306 -0.143649
-0.30436 0.0203791 -0.145853
-0.311195 0.0207319 -0.148053
-0.318017 0.0210892 -0.150245
-0.252952 0.0184898 -0.129793
-0.259542 0.0188146 -0.13199
-0.266145 0.0191433 -0.134191
-0.272759 0.0194761 -0.136394
-0.279382 0.0198131 -0.1386
-0.286012 0.0201544 -0.140806
-0.292643 0.0205001 -0.143012
-0.299274 0.0208502 -0.145216
-0.305898 0.0212048 -0.147416
-0.31251 0.021564 -0.149611
-0.249275 0.0189459 -0.129164
-0.255655 0.0192708 -0.131356
-0.262047 0.0195997 -0.133552
-0.268449 0.0199329 -0.135751
-0.27486 0.0202704 -0.137953
-0.281276 0.0206123 -0.140157
-0.287694 0.0209587 -0.142361
-0.294111 0.0213097 -0.144565
-0.300523 0.0216653 -0.146766
-0.306923 0.0220257 -0.148962
-0.245539 0.0193954 -0.128523
-0.251707 0.0197197 -0.130708
-0.257886 0.0200481 -0.132899
-0.264075 0.0203809 -0.135094
-0.270272 0.020718 -0.137293
-0.276474 0.0210597 -0.139494
-0.282677 0.0214061 -0.141697
-0.28888 0.0217571 -0.143899
-0.295076 0.022113 -0.146101
-0.301263 0.0224737 -0.148299
-0.241746 0.0198382 -0.127868
-0.247702 0.020161 -0.130048
-0.253669 0.0204881 -0.132233
-0.259644 0.0208196 -0.134424
-0.265626 0.0211556 -0.136619
-0.271612 0.0214963 -0.138817
-0.2776 0.0218417 -0.141018
-0.283586 0.022192 -0.14322
-0.289566 0.0225473 -0.145422
-0.295537 0.0229076 -0.147622
-0.237901 0.0202741 -0.1272
-0.243645 0.0205947 -0.129374
-0.249399 0.0209195 -0.131555
-0.25516 0.0212489 -0.133741
-0.260926 0.0215829 -0.135932
-0.266696 0.0219216 -0.138128
-0.272467 0.0222653 -0.140327
-0.278236 0.022614 -0.142528
-0.284 0.0229678 -0.14473
-0.289753 0.0233268 -0.146931
-0.234009 0.020703 -0.12652
-0.239541 0.0210203 -0.128689
-0.245082 0.0213421 -0.130864
-0.250628 0.0216684 -0.133045
-0.25618 0.0219995 -0.135233
-0.261734 0.0223354 -0.137426
-0.267288 0.0226764 -0.139622
-0.272839 0.0230226 -0.141823
-0.278385 0.023374 -0.144025
-0.283921 0.0237308 -0.146228
-0.230073 0.0211246 -0.125829
-0.235394 0.0214379 -0.127991
-0.240722 0.0217556 -0.130161
-0.246056 0.0220779 -0.132338
-0.251393 0.0224051 -0.134522
-0.256731 0.0227373 -0.136711
-0.262068 0.0230747 -0.138906
-0.267402 0.0234174 -0.141105
-0.27273 0.0237655 -0.143307
-0.241447 0.0224772 -0.131619
-0.246571 0.0227995 -0.133799
-0.251694 0.023127 -0.135986
-0.256816 0.0234598 -0.138178
-0.261933 0.0237979 -0.140376
-0.267043 0.0241417 -0.142578
-0.256453 0.0165577 -0.128719
-0.256509 0.0172909 -0.129563
-0.263252 0.0167958 -0.130921
-0.263308 0.0175716 -0.131765
-0.270065 0.0170374 -0.133127
-0.270121 0.017856 -0.133971
-0.27689 0.0172826 -0.135336
-0.276946 0.0181441 -0.13618
-0.283725 0.0175315 -0.137547
-0.28378 0.0184362 -0.138389
-0.290566 0.0177842 -0.139758
-0.290621 0.0187322 -0.1406
-0.29741 0.0180411 -0.141969
-0.297464 0.0190324 -0.142809
-0.304252 0.0183021 -0.144179
-0.304306 0.0193369 -0.145016
-0.311088 0.0185677 -0.146386
-0.311142 0.0196458 -0.147219
-0.317912 0.018838 -0.148587
-0.317965 0.0199592 -0.149416
-0.252838 0.0169928 -0.128157
-0.252895 0.0177395 -0.128975
-0.259428 0.0172312 -0.130354
-0.259485 0.0180208 -0.131172
-0.266032 0.0174731 -0.132555
-0.266088 0.0183058 -0.133373
-0.272646 0.0177187 -0.13476
-0.272703 0.0185947 -0.135577
-0.27927 0.017968 -0.136968
-0.279326 0.0188875 -0.137784
-0.285899 0.0182213 -0.139177
-0.285955 0.0191845 -0.139992
-0.292532 0.0184788 -0.141387
-0.292588 0.0194858 -0.1422
-0.299163 0.0187406 -0.143596
-0.299218 0.0197914 -0.144407
-0.305788 0.019007 -0.145803
-0.305843 0.0201016 -0.14661
-0.312402 0.0192781 -0.148006
-0.312456 0.0204164 -0.148809
-0.24916 0.0174232 -0.127581
-0.249218 0.0181825 -0.128373
-0.255539 0.0176613 -0.129773
-0.255597 0.0184637 -0.130565
-0.261931 0.0179029 -0.13197
-0.261989 0.0187487 -0.132761
-0.268334 0.0181483 -0.134171
-0.268391 0.0190377 -0.134961
-0.274744 0.0183975 -0.136375
-0.274802 0.0193307 -0.137164
-0.281161 0.0186507 -0.138582
-0.281218 0.0196279 -0.13937
-0.28758 0.0189082 -0.14079
-0.287637 0.0199295 -0.141576
-0.293998 0.0191701 -0.142999
-0.294054 0.0202357 -0.143782
-0.30041 0.0194367 -0.145207
-0.300466 0.0205464 -0.145987
-0.306811 0.0197082 -0.147411
-0.306867 0.020862 -0.148187
-0.245422 0.0178487 -0.126993
-0.24548 0.0186199 -0.127758
-0.25159 0.0180858 -0.129179
-0.251648 0.0189003 -0.129944
-0.257769 0.0183266 -0.131371
-0.257827 0.0191845 -0.132135
-0.263958 0.0185711 -0.133568
-0.264017 0.0194728 -0.134331
-0.270154 0.0188195 -0.135769
-0.270213 0.0197653 -0.136531
-0.276356 0.0190721 -0.137973
-0.276415 0.0200621 -0.138734
-0.28256 0.019329 -0.14018
-0.282619 0.0203634 -0.140939
-0.288763 0.0195904 -0.142388
-0.288821 0.0206692 -0.143144
-0.29496 0.0198565 -0.144596
-0.295018 0.0209799 -0.145349
-0.301147 0.0201277 -0.146803
-0.301205 0.0212955 -0.147552
-0.241627 0.0182691 -0.126391
-0.241686 0.0190514 -0.12713
-0.247583 0.0185046 -0.128572
-0.247642 0.0193302 -0.12931
-0.253549 0.0187438 -0.130759
-0.253609 0.019613 -0.131497
-0.259524 0.0189868 -0.132952
-0.259584 0.0198999 -0.133688
-0.265506 0.0192339 -0.13515
-0.265565 0.0201911 -0.135885
-0.271492 0.0194851 -0.137351
-0.271552 0.0204867 -0.138085
-0.277479 0.0197407 -0.139557
-0.277539 0.0207868 -0.140288
-0.283466 0.020001 -0.141764
-0.283525 0.0210918 -0.142493
-0.289446 0.0202661 -0.143972
-0.289506 0.0214016 -0.144698
-0.295418 0.0205363 -0.14618
-0.295477 0.0217164 -0.146902
-0.237781 0.0186842 -0.125777
-0.237841 0.0194767 -0.126489
-0.243525 0.0189176 -0.127952
-0.243585 0.0197533 -0.128664
-0.249277 0.0191545 -0.130134
-0.249338 0.0200339 -0.130845
-0.255038 0.0193954 -0.132323
-0.255098 0.0203186 -0.133032
-0.260804 0.0196403 -0.134517
-0.260865 0.0206077 -0.135225
-0.266574 0.0198895 -0.136716
-0.266635 0.0209013 -0.137423
-0.272344 0.0201432 -0.13892
-0.272406 0.0211996 -0.139624
-0.278113 0.0204017 -0.141126
-0.278175 0.0215028 -0.141828
-0.283877 0.020665 -0.143335
-0.283938 0.021811 -0.144033
-0.28963 0.0209335 -0.145544
-0.289692 0.0221244 -0.146239
-0.233887 0.019094 -0.12515
-0.233948 0.0198959 -0.125836
-0.239419 0.0193244 -0.12732
-0.23948 0.0201694 -0.128005
-0.244958 0.0195585 -0.129497
-0.24502 0.0204469 -0.130181
-0.250504 0.0197965 -0.131682
-0.250566 0.0207287 -0.132364
-0.256055 0.0200386 -0.133872
-0.256117 0.0210149 -0.134553
-0.261608 0.0202851 -0.136069
-0.261671 0.0213058 -0.136748
-0.267162 0.0205362 -0.13827
-0.267225 0.0216014 -0.138947
-0.272713 0.020792 -0.140476
-0.272776 0.021902 -0.14115
-0.278258 0.0210529 -0.142685
-0.278321 0.0222078 -0.143356
-0.283794 0.021319 -0.144896
-0.283857 0.0225188 -0.145563
-0.22995 0.0194983 -0.124512
-0.230011 0.0203087 -0.125171
-0.23527 0.019725 -0.126676
-0.235332 0.0205783 -0.127334
-0.240597 0.0199555 -0.128848
-0.240659 0.020852 -0.129505
-0.245929 0.0201899 -0.131028
-0.245992 0.02113 -0.131684
-0.251265 0.0204285 -0.133215
-0.251328 0.0214125 -0.133869
-0.256602 0.0206715 -0.135409
-0.256666 0.0216997 -0.136061
-0.261939 0.0209192 -0.137609
-0.262003 0.0219918 -0.138259
-0.267272 0.0211717 -0.139814
-0.267337 0.022289 -0.140461
-0.2726 0.0214294 -0.142023
-0.272665 0.0225915 -0.142666
-0.241319 0.0205754 -0.130363
-0.241383 0.0215222 -0.130992
-0.24644 0.0208097 -0.132546
-0.246505 0.0218001 -0.133174
-0.251563 0.0210485 -0.134737
-0.251628 0.0220829 -0.135363
-0.256683 0.021292 -0.136935
-0.256749 0.0223706 -0.137558
-0.2618 0.0215405 -0.139139
-0.261866 0.0226634 -0.139759
-0.266909 0.0217941 -0.141348
-0.266976 0.0229617 -0.141965
-0.25639 0.0158281 -0.127874
-0.25639 0.0158279 -0.127874
-0.263189 0.0160242 -0.130076
-0.263189 0.0160239 -0.130076
-0.270002 0.0162235 -0.132282
-0.270002 0.0162231 -0.132282
-0.276828 0.0164261 -0.134492
-0.276828 0.0164257 -0.134492
-0.283663 0.0166323 -0.136704
-0.283663 0.0166318 -0.136703
-0.290504 0.0168422 -0.138917
-0.290504 0.0168417 -0.138917
-0.297348 0.0170561 -0.14113
-0.297348 0.0170556 -0.14113
-0.304191 0.0172742 -0.143343
-0.304191 0.0172737 -0.143342
-0.311028 0.017497 -0.145553
-0.311028 0.0174964 -0.145552
-0.317852 0.0177245 -0.147759
-0.317852 0.0177238 -0.147758